 vasp.6.3.2 27Jun22 (build Oct 05 2023 17:59:42) gamma-only                     
  
 executed on             LinuxIFC date 2024.04.05  18:28:44
 running on   18 total cores
 each image running on    2 cores
 distrk:  each k-point on    2 cores,    1 groups
 distr:  one band on NCORE=   1 cores,    2 groups


--------------------------------------------------------------------------------------------------------


 INCAR:
   ENCUT = 400.000000
   SIGMA = 0.050000
   ALGO = Fast
   GGA = PE
   ISMEAR = 0
   ISPIN = 1
   IVDW = 11
   LCHARG = .FALSE.
   LWAVE = .FALSE.
   EDIFF = 1E-05
   EDIFFG = -0.05
   NSW = 5000
   IBRION = 1
   SPRING = -5
   POTIM = 0.1
   PREC = NORMAL
   IMAGES = 9
   LCLIMB = .TRUE.

 POTCAR:    PAW_PBE C 08Apr2002                   
 POTCAR:    PAW_PBE H 15Jun2001                   
 POTCAR:    PAW_PBE N 08Apr2002                   
 POTCAR:    PAW_PBE C 08Apr2002                   
   SHA256 =  253f7b50bb8d59471dbedb8285d89021f4a42ed1a2c5d38a03a736e69125dd95 C/POTCAR              
   COPYR  = (c) Copyright 08Apr2002 Georg Kresse                                                    
   COPYR  = This file is part of the software VASP. Any use, copying, and all other rights are regul
   COPYR  = If you do not have a valid VASP license, you may not use, copy or distribute this file. 
   VRHFIN =C: s2p2                                                                                  
   LEXCH  = PE                                                                                      
   EATOM  =   147.1560 eV,   10.8157 Ry                                                             
                                                                                                    
   TITEL  = PAW_PBE C 08Apr2002                                                                     
   LULTRA =        F    use ultrasoft PP ?                                                          
   IUNSCR =        1    unscreen: 0-lin 1-nonlin 2-no                                               
   RPACOR =    1.200    partial core radius                                                         
   POMASS =   12.011; ZVAL   =    4.000    mass and valenz                                          
   RCORE  =    1.500    outmost cutoff radius                                                       
   RWIGS  =    1.630; RWIGS  =    0.863    wigner-seitz radius (au A)                               
   ENMAX  =  400.000; ENMIN  =  300.000 eV                                                          
   ICORE  =        2    local potential                                                             
   LCOR   =        T    correct aug charges                                                         
   LPAW   =        T    paw PP                                                                      
   EAUG   =  644.873                                                                                
   DEXC   =    0.000                                                                                
   RMAX   =    1.529    core radius for proj-oper                                                   
   RAUG   =    1.300    factor for augmentation sphere                                              
   RDEP   =    1.501    radius for radial grids                                                     
   RDEPT  =    1.300    core radius for aug-charge                                                  
                                                                                                    
   Atomic configuration                                                                             
    4 entries                                                                                       
     n  l   j            E        occ.                                                              
     1  0  0.50      -273.3789   2.0000                                                             
     2  0  0.50       -13.7508   2.0000                                                             
     2  1  0.50        -5.2854   2.0000                                                             
     3  2  1.50        -5.4423   0.0000                                                             
   Description                                                                                      
     l       E           TYP  RCUT    TYP  RCUT                                                     
     0    -13.7508458     23  1.200                                                                 
     0     -8.2022199     23  1.200                                                                 
     1     -5.2854383     23  1.500                                                                 
     1     34.0145650     23  1.500                                                                 
     2     -5.4423304      7  1.500                                                                 
  local pseudopotential read in
  partial core-charges read in
  partial kinetic energy density read in
  atomic valenz-charges read in
  non local Contribution for L=           0  read in
    real space projection operators read in
  non local Contribution for L=           0  read in
    real space projection operators read in
  non local Contribution for L=           1  read in
    real space projection operators read in
  non local Contribution for L=           1  read in
    real space projection operators read in
    PAW grid and wavefunctions read in
 
   number of l-projection  operators is LMAX  =           4
   number of lm-projection operators is LMMAX =           8
 
 POTCAR:    PAW_PBE H 15Jun2001                   
   SHA256 =  030f79b5d3ab3cf0e668861823c8fb652ff669f3e15e46930bd03bfd63a607b6 H/POTCAR              
   COPYR  = (c) Copyright 15Jun2001 Georg Kresse                                                    
   COPYR  = This file is part of the software VASP. Any use, copying, and all other rights are regul
   COPYR  = If you do not have a valid VASP license, you may not use, copy or distribute this file. 
   VRHFIN =H: ultrasoft test                                                                        
   LEXCH  = PE                                                                                      
   EATOM  =    12.4884 eV,    0.9179 Ry                                                             
                                                                                                    
   TITEL  = PAW_PBE H 15Jun2001                                                                     
   LULTRA =        F    use ultrasoft PP ?                                                          
   IUNSCR =        0    unscreen: 0-lin 1-nonlin 2-no                                               
   RPACOR =    0.000    partial core radius                                                         
   POMASS =    1.000; ZVAL   =    1.000    mass and valenz                                          
   RCORE  =    1.100    outmost cutoff radius                                                       
   RWIGS  =    0.700; RWIGS  =    0.370    wigner-seitz radius (au A)                               
   ENMAX  =  250.000; ENMIN  =  200.000 eV                                                          
   RCLOC  =    0.701    cutoff for local pot                                                        
   LCOR   =        T    correct aug charges                                                         
   LPAW   =        T    paw PP                                                                      
   EAUG   =  400.000                                                                                
   RMAX   =    1.123    core radius for proj-oper                                                   
   RAUG   =    1.200    factor for augmentation sphere                                              
   RDEP   =    1.112    radius for radial grids                                                     
   RDEPT  =    0.926    core radius for aug-charge                                                  
                                                                                                    
   Atomic configuration                                                                             
    2 entries                                                                                       
     n  l   j            E        occ.                                                              
     1  0  0.50        -6.4927   1.0000                                                             
     2  1  0.50        -3.4015   0.0000                                                             
   Description                                                                                      
     l       E           TYP  RCUT    TYP  RCUT                                                     
     0     -6.4927494     23  1.100                                                                 
     0      6.8029130     23  1.100                                                                 
     1     -4.0817478     23  1.100                                                                 
  local pseudopotential read in
  atomic valenz-charges read in
  non local Contribution for L=           0  read in
    real space projection operators read in
  non local Contribution for L=           0  read in
    real space projection operators read in
  non local Contribution for L=           1  read in
    real space projection operators read in
    PAW grid and wavefunctions read in
 
   number of l-projection  operators is LMAX  =           3
   number of lm-projection operators is LMMAX =           5
 
 POTCAR:    PAW_PBE N 08Apr2002                   
   SHA256 =  e053789ff3a61a86a1b75d8a110fcc91f86041011e7b0817c7c99e4e8a6349d7 N/POTCAR              
   COPYR  = (c) Copyright 08Apr2002 Georg Kresse                                                    
   COPYR  = This file is part of the software VASP. Any use, copying, and all other rights are regul
   COPYR  = If you do not have a valid VASP license, you may not use, copy or distribute this file. 
   VRHFIN =N: s2p3                                                                                  
   LEXCH  = PE                                                                                      
   EATOM  =   264.5486 eV,   19.4438 Ry                                                             
                                                                                                    
   TITEL  = PAW_PBE N 08Apr2002                                                                     
   LULTRA =        F    use ultrasoft PP ?                                                          
   IUNSCR =        1    unscreen: 0-lin 1-nonlin 2-no                                               
   RPACOR =    1.200    partial core radius                                                         
   POMASS =   14.001; ZVAL   =    5.000    mass and valenz                                          
   RCORE  =    1.500    outmost cutoff radius                                                       
   RWIGS  =    1.400; RWIGS  =    0.741    wigner-seitz radius (au A)                               
   ENMAX  =  400.000; ENMIN  =  300.000 eV                                                          
   ICORE  =        2    local potential                                                             
   LCOR   =        T    correct aug charges                                                         
   LPAW   =        T    paw PP                                                                      
   EAUG   =  627.112                                                                                
   DEXC   =    0.000                                                                                
   RMAX   =    1.529    core radius for proj-oper                                                   
   RAUG   =    1.300    factor for augmentation sphere                                              
   RDEP   =    1.514    radius for radial grids                                                     
   RDEPT  =    1.338    core radius for aug-charge                                                  
                                                                                                    
   Atomic configuration                                                                             
    4 entries                                                                                       
     n  l   j            E        occ.                                                              
     1  0  0.50      -384.7179   2.0000                                                             
     2  0  0.50       -18.5828   2.0000                                                             
     2  1  0.50        -7.0898   3.0000                                                             
     3  2  1.50        -6.8029   0.0000                                                             
   Description                                                                                      
     l       E           TYP  RCUT    TYP  RCUT                                                     
     0    -18.5828119     23  1.200                                                                 
     0    -13.5018863     23  1.200                                                                 
     1     -7.0897853     23  1.500                                                                 
     1      9.5240782     23  1.500                                                                 
     2     -6.8029130      7  1.500                                                                 
  local pseudopotential read in
  partial core-charges read in
  partial kinetic energy density read in
  atomic valenz-charges read in
  non local Contribution for L=           0  read in
    real space projection operators read in
  non local Contribution for L=           0  read in
    real space projection operators read in
  non local Contribution for L=           1  read in
    real space projection operators read in
  non local Contribution for L=           1  read in
    real space projection operators read in
    PAW grid and wavefunctions read in
 
   number of l-projection  operators is LMAX  =           4
   number of lm-projection operators is LMMAX =           8
 
 -----------------------------------------------------------------------------
|                                                                             |
|               ----> ADVICE to this user running VASP <----                  |
|                                                                             |
|     You have a (more or less) 'large supercell' and for larger cells it     |
|     might be more efficient to use real-space projection operators.         |
|     Therefore, try LREAL= Auto in the INCAR file.                           |
|     Mind: For very accurate calculation, you might also keep the            |
|     reciprocal projection scheme (i.e. LREAL=.FALSE.).                      |
|                                                                             |
 -----------------------------------------------------------------------------

  PAW_PBE C 08Apr2002                   :
 energy of atom  1       EATOM= -147.1560
 kinetic energy error for atom=    0.0288 (will be added to EATOM!!)
  PAW_PBE H 15Jun2001                   :
 energy of atom  2       EATOM=  -12.4884
 kinetic energy error for atom=    0.0098 (will be added to EATOM!!)
  PAW_PBE N 08Apr2002                   :
 energy of atom  3       EATOM= -264.5486
 kinetic energy error for atom=    0.0736 (will be added to EATOM!!)
 
 
 POSCAR:  C  H  N
  positions in cartesian coordinates
  No initial velocities read in
 exchange correlation table for  LEXCH =        8
   RHO(1)=    0.500       N(1)  =     2000
   RHO(2)=  100.500       N(2)  =     4000

 VTST: version 4.1, (05/19/21)

 CHAIN: initializing optimizer
 
 OPT: Using VASP QUASI-newton optimizer
 CHAIN: Read ICHAIN            0
 CHAIN: Running the NEB
 NEB:          SPRING     -5.000000
 NEB:          LCLIMB      T
 NEB:     LTANGENTOLD      F
 NEB:           LDNEB      F
 NEB:        LDNEBORG      F
 NEB:        LNEBCELL      F
 NEB:          EFIRST      0.000000
 NEB:           ELAST      0.000000
 
 POSCAR:  C  H  N
  positions in cartesian coordinates
  No initial velocities read in
 
 POSCAR:  C  H  N
  positions in cartesian coordinates
  No initial velocities read in
 
 POSCAR:  C  H  N
  positions in cartesian coordinates
  No initial velocities read in
 
 POSCAR:  C  H  N
  positions in cartesian coordinates
  No initial velocities read in
 


--------------------------------------------------------------------------------------------------------


 ion  position               nearest neighbor table
   1  0.334  0.442  0.562-   8 1.09   2 1.34   4 1.49
   2  0.334  0.528  0.570-  11 1.09   1 1.34   3 1.49
   3  0.416  0.578  0.557-  13 1.09  12 1.10   2 1.49   6 1.54
   4  0.416  0.393  0.546-  10 1.09   9 1.10   1 1.49   5 1.55
   5  0.487  0.443  0.495-  15 1.09  14 1.09   6 1.53   4 1.55
   6  0.466  0.539  0.480-  16 1.10   7 1.45   5 1.53   3 1.54
   7  0.544  0.587  0.460-  17 1.17   6 1.45
   8  0.275  0.404  0.572-   1 1.09
   9  0.446  0.373  0.608-   4 1.10
  10  0.401  0.331  0.514-   4 1.09
  11  0.274  0.563  0.584-   2 1.09
  12  0.459  0.574  0.613-   3 1.10
  13  0.403  0.647  0.546-   3 1.09
  14  0.499  0.412  0.432-   5 1.09
  15  0.548  0.438  0.531-   5 1.09
  16  0.423  0.543  0.423-   6 1.10
  17  0.608  0.625  0.446-   7 1.17
 
  LATTYP: Found a simple cubic cell.
 ALAT       =    15.4022502899
  
  Lattice vectors:
  
 A1 = (  15.4022502899,   0.0000000000,   0.0000000000)
 A2 = (   0.0000000000,  15.4022502899,   0.0000000000)
 A3 = (   0.0000000000,   0.0000000000,  15.4022502899)


Analysis of symmetry for initial positions (statically):
=====================================================================
 Subroutine PRICEL returns:
 Original cell was already a primitive cell.
 

 Routine SETGRP: Setting up the symmetry group for a 
 simple cubic supercell.


 Subroutine GETGRP returns: Found  1 space group operations
 (whereof  1 operations were pure point group operations)
 out of a pool of 48 trial point group operations.


The static configuration has the point symmetry C_1 .


Analysis of symmetry for dynamics (positions and initial velocities):
=====================================================================
 Subroutine PRICEL returns:
 Original cell was already a primitive cell.
 

 Routine SETGRP: Setting up the symmetry group for a 
 simple cubic supercell.


 Subroutine GETGRP returns: Found  1 space group operations
 (whereof  1 operations were pure point group operations)
 out of a pool of 48 trial point group operations.


The dynamic configuration has the point symmetry C_1 .


 Subroutine INISYM returns: Found  1 space group operations
 (whereof  1 operations are pure point group operations),
 and found     1 'primitive' translations


----------------------------------------------------------------------------------------

                                     Primitive cell                                     

  volume of cell :    3653.8653

  direct lattice vectors                    reciprocal lattice vectors
    15.402250290  0.000000000  0.000000000     0.064925578  0.000000000  0.000000000
     0.000000000 15.402250290  0.000000000     0.000000000  0.064925578  0.000000000
     0.000000000  0.000000000 15.402250290     0.000000000  0.000000000  0.064925578

  length of vectors
    15.402250290 15.402250290 15.402250290     0.064925578  0.064925578  0.064925578

  position of ions in fractional coordinates (direct lattice)
     0.334015916  0.441767594  0.562390132
     0.333785156  0.528356931  0.569947793
     0.415749295  0.578132690  0.557098448
     0.415864599  0.392780833  0.546350957
     0.486552126  0.442687249  0.495345898
     0.465651842  0.538578824  0.479832047
     0.544031603  0.586887365  0.460369913
     0.275018200  0.403990527  0.571911392
     0.445856833  0.373476496  0.608172017
     0.400655567  0.331454114  0.513981572
     0.273902241  0.563203010  0.583789443
     0.459415712  0.574183289  0.613071471
     0.402954610  0.647173507  0.546140030
     0.498931807  0.411969621  0.432478217
     0.547570440  0.438256129  0.530935406
     0.422871102  0.543178530  0.423138681
     0.608150259  0.624602289  0.446280224

  ion indices of the primitive-cell ions
   primitive index   ion index
                 1           1
                 2           2
                 3           3
                 4           4
                 5           5
                 6           6
                 7           7
                 8           8
                 9           9
                10          10
                11          11
                12          12
                13          13
                14          14
                15          15
                16          16
                17          17

----------------------------------------------------------------------------------------

 
 
 KPOINTS: KPOINTS created by Atomic Simulation Env

Automatic generation of k-mesh.
 Grid dimensions read from file:
 generate k-points for:    1    1    1

 Generating k-lattice:

  Cartesian coordinates                     Fractional coordinates (reciprocal lattice)
     0.064925578  0.000000000  0.000000000     1.000000000  0.000000000  0.000000000
     0.000000000  0.064925578  0.000000000     0.000000000  1.000000000  0.000000000
     0.000000000  0.000000000  0.064925578     0.000000000  0.000000000  1.000000000

  Length of vectors
     0.064925578  0.064925578  0.064925578

  Shift w.r.t. Gamma in fractional coordinates (k-lattice)
     0.000000000  0.000000000  0.000000000

 
 Subroutine IBZKPT returns following result:
 ===========================================
 
 Found      1 irreducible k-points:
 
 Following reciprocal coordinates:
            Coordinates               Weight
  0.000000  0.000000  0.000000      1.000000
 
 Following cartesian coordinates:
            Coordinates               Weight
  0.000000  0.000000  0.000000      1.000000
 


--------------------------------------------------------------------------------------------------------




 Dimension of arrays:
   k-points           NKPTS =      1   k-points in BZ     NKDIM =      1   number of bands    NBANDS=     30
   number of dos      NEDOS =    301   number of ions     NIONS =     17
   non local maximal  LDIM  =      4   non local SUM 2l+1 LMDIM =      8
   total plane-waves  NPLWV = 512000
   max r-space proj   IRMAX =      1   max aug-charges    IRDMAX=   1924
   dimension x,y,z NGX =    80 NGY =   80 NGZ =   80
   dimension x,y,z NGXF=   160 NGYF=  160 NGZF=  160
   support grid    NGXF=   160 NGYF=  160 NGZF=  160
   ions per type =               7   9   1
   NGX,Y,Z   is equivalent  to a cutoff of   8.63,  8.63,  8.63 a.u.
   NGXF,Y,Z  is equivalent  to a cutoff of  17.27, 17.27, 17.27 a.u.

 SYSTEM =  unknown system                          
 POSCAR =   C  H  N                                

 Startparameter for this run:
   NWRITE =      2    write-flag & timer
   PREC   = normal    normal or accurate (medium, high low for compatibility)
   ISTART =      0    job   : 0-new  1-cont  2-samecut
   ICHARG =      2    charge: 1-file 2-atom 10-const
   ISPIN  =      1    spin polarized calculation?
   LNONCOLLINEAR =      F non collinear calculations
   LSORBIT =      F    spin-orbit coupling
   INIWAV =      1    electr: 0-lowe 1-rand  2-diag
   LASPH  =      F    aspherical Exc in radial PAW
 Electronic Relaxation 1
   ENCUT  =  400.0 eV  29.40 Ry    5.42 a.u.  25.12 25.12 25.12*2*pi/ulx,y,z
   ENINI  =  400.0     initial cutoff
   ENAUG  =  644.9 eV  augmentation charge cutoff
   NELM   =     60;   NELMIN=  2; NELMDL= -5     # of ELM steps 
   EDIFF  = 0.1E-04   stopping-criterion for ELM
   LREAL  =      F    real-space projection
   NLSPLINE    = F    spline interpolate recip. space projectors
   LCOMPAT=      F    compatible to vasp.4.4
   GGA_COMPAT  = T    GGA compatible to vasp.4.4-vasp.4.6
   LMAXPAW     = -100 max onsite density
   LMAXMIX     =    2 max onsite mixed and CHGCAR
   VOSKOWN=      0    Vosko Wilk Nusair interpolation
   ROPT   =    0.00000   0.00000   0.00000
 Ionic relaxation
   EDIFFG = -.5E-01   stopping-criterion for IOM
   NSW    =   5000    number of steps for IOM
   NBLOCK =      1;   KBLOCK =   5000    inner block; outer block 
   IBRION =      1    ionic relax: 0-MD 1-quasi-New 2-CG
   NFREE  =      0    steps in history (QN), initial steepest desc. (CG)
   ISIF   =      2    stress and relaxation
   IWAVPR =     11    prediction:  0-non 1-charg 2-wave 3-comb
   ISYM   =      2    0-nonsym 1-usesym 2-fastsym
   LCORR  =      T    Harris-Foulkes like correction to forces

   POTIM  = 0.1000    time-step for ionic-motion
   TEIN   =    0.0    initial temperature
   TEBEG  =    0.0;   TEEND  =   0.0 temperature during run
   SMASS  =  -3.00    Nose mass-parameter (am)
   estimated Nose-frequenzy (Omega)   =  0.10E-29 period in steps = 0.63E+47 mass=  -0.542E-26a.u.
   SCALEE = 1.0000    scale energy and forces
   NPACO  =    256;   APACO  = 10.0  distance and # of slots for P.C.
   PSTRESS=    0.0 pullay stress

  Mass of Ions in am
   POMASS =  12.01  1.00 14.00
  Ionic Valenz
   ZVAL   =   4.00  1.00  5.00
  Atomic Wigner-Seitz radii
   RWIGS  =  -1.00 -1.00 -1.00
  virtual crystal weights 
   VCA    =   1.00  1.00  1.00
   NELECT =      42.0000    total number of electrons
   NUPDOWN=      -1.0000    fix difference up-down

 DOS related values:
   EMIN   =  10.00;   EMAX   =-10.00  energy-range for DOS
   EFERMI =   0.00
   ISMEAR =     0;   SIGMA  =   0.05  broadening in eV -4-tet -1-fermi 0-gaus

 Electronic relaxation 2 (details)
   IALGO  =     68    algorithm
   LDIAG  =      T    sub-space diagonalisation (order eigenvalues)
   LSUBROT=      F    optimize rotation matrix (better conditioning)
   TURBO    =      0    0=normal 1=particle mesh
   IRESTART =      0    0=no restart 2=restart with 2 vectors
   NREBOOT  =      0    no. of reboots
   NMIN     =      0    reboot dimension
   EREF     =   0.00    reference energy to select bands
   IMIX   =      4    mixing-type and parameters
     AMIX     =   0.40;   BMIX     =  1.00
     AMIX_MAG =   1.60;   BMIX_MAG =  1.00
     AMIN     =   0.10
     WC   =   100.;   INIMIX=   1;  MIXPRE=   1;  MAXMIX= -45

 Intra band minimization:
   WEIMIN = 0.0010     energy-eigenvalue tresh-hold
   EBREAK =  0.83E-07  absolut break condition
   DEPER  =   0.30     relativ break condition  

   TIME   =   0.40     timestep for ELM

  volume/ion in A,a.u.               =     214.93      1450.44
  Fermi-wavevector in a.u.,A,eV,Ry     =   0.369465  0.698188  1.857259  0.136505
  Thomas-Fermi vector in A             =   1.296107
 
 Write flags
   LWAVE        =      F    write WAVECAR
   LDOWNSAMPLE  =      F    k-point downsampling of WAVECAR
   LCHARG       =      F    write CHGCAR
   LVTOT        =      F    write LOCPOT, total local potential
   LVHAR        =      F    write LOCPOT, Hartree potential only
   LELF         =      F    write electronic localiz. function (ELF)
   LORBIT       =      0    0 simple, 1 ext, 2 COOP (PROOUT), +10 PAW based schemes


 Dipole corrections
   LMONO  =      F    monopole corrections only (constant potential shift)
   LDIPOL =      F    correct potential (dipole corrections)
   IDIPOL =      0    1-x, 2-y, 3-z, 4-all directions 
   EPSILON=  1.0000000 bulk dielectric constant

 Exchange correlation treatment:
   GGA     =    PE    GGA type
   LEXCH   =     8    internal setting for exchange type
   LIBXC   =     F    Libxc                    
   VOSKOWN =     0    Vosko Wilk Nusair interpolation
   LHFCALC =     F    Hartree Fock is set to
   LHFONE  =     F    Hartree Fock one center treatment
   AEXX    =    0.0000 exact exchange contribution

 Linear response parameters
   LEPSILON=     F    determine dielectric tensor
   LRPA    =     F    only Hartree local field effects (RPA)
   LNABLA  =     F    use nabla operator in PAW spheres
   LVEL    =     F    velocity operator in full k-point grid
   CSHIFT  =0.1000    complex shift for real part using Kramers Kronig
   OMEGAMAX=  -1.0    maximum frequency
   DEG_THRESHOLD= 0.2000000E-02 threshold for treating states as degnerate
   RTIME   =   -0.100 relaxation time in fs
  (WPLASMAI=    0.000 imaginary part of plasma frequency in eV, 0.658/RTIME)
   DFIELD  = 0.0000000 0.0000000 0.0000000 field for delta impulse in time
 
  Optional k-point grid parameters
   LKPOINTS_OPT  =     F    use optional k-point grid
   KPOINTS_OPT_MODE=     1    mode for optional k-point grid
 
 Orbital magnetization related:
   ORBITALMAG=     F  switch on orbital magnetization
   LCHIMAG   =     F  perturbation theory with respect to B field
   DQ        =  0.001000  dq finite difference perturbation B field
   LLRAUG    =     F  two centre corrections for induced B field



--------------------------------------------------------------------------------------------------------


 quasi-Newton-method for relaxation of ions
 charge density and potential will be updated during run
 non-spin polarized calculation
 RMM-DIIS sequential band-by-band and
  variant of blocked Davidson during initial phase
 perform sub-space diagonalisation
    before iterative eigenvector-optimisation
 modified Broyden-mixing scheme, WC =      100.0
 initial mixing is a Kerker type mixing with AMIX =  0.4000 and BMIX =      1.0000
 Hartree-type preconditioning will be used
 using additional bands            9
 reciprocal scheme for non local part
 use partial core corrections
 calculate Harris-corrections to forces 
   (improved forces if not selfconsistent)
 use gradient corrections 
 use of overlap-Matrix (Vanderbilt PP)
 Gauss-broadening in eV      SIGMA  =   0.05


--------------------------------------------------------------------------------------------------------


  energy-cutoff  :      400.00
  volume of cell :     3653.87
      direct lattice vectors                 reciprocal lattice vectors
    15.402250290  0.000000000  0.000000000     0.064925578  0.000000000  0.000000000
     0.000000000 15.402250290  0.000000000     0.000000000  0.064925578  0.000000000
     0.000000000  0.000000000 15.402250290     0.000000000  0.000000000  0.064925578

  length of vectors
    15.402250290 15.402250290 15.402250290     0.064925578  0.064925578  0.064925578


 
 k-points in units of 2pi/SCALE and weight: KPOINTS created by Atomic Simulation Env
   0.00000000  0.00000000  0.00000000       1.000
 
 k-points in reciprocal lattice and weights: KPOINTS created by Atomic Simulation Env
   0.00000000  0.00000000  0.00000000       1.000
 
 position of ions in fractional coordinates (direct lattice) 
   0.33401592  0.44176759  0.56239013
   0.33378516  0.52835693  0.56994779
   0.41574930  0.57813269  0.55709845
   0.41586460  0.39278083  0.54635096
   0.48655213  0.44268725  0.49534590
   0.46565184  0.53857882  0.47983205
   0.54403160  0.58688736  0.46036991
   0.27501820  0.40399053  0.57191139
   0.44585683  0.37347650  0.60817202
   0.40065557  0.33145411  0.51398157
   0.27390224  0.56320301  0.58378944
   0.45941571  0.57418329  0.61307147
   0.40295461  0.64717351  0.54614003
   0.49893181  0.41196962  0.43247822
   0.54757044  0.43825613  0.53093541
   0.42287110  0.54317853  0.42313868
   0.60815026  0.62460229  0.44628022
 
 position of ions in cartesian coordinates  (Angst):
   5.14459674  6.80421505  8.66207357
   5.14104252  8.13788569  8.77847856
   6.40347471  8.90454439  8.58056974
   6.40525064  6.04970870  8.41503418
   7.49399762  6.81837981  7.62944149
   7.17208621  8.29532585  7.39049328
   8.37931092  9.03938608  7.09073263
   4.23589915  6.22236322  8.80872240
   6.86719854  5.75237847  9.36721763
   6.17099732  5.10513922  7.91647281
   4.21871088  8.67459372  8.99167111
   7.07603578  8.84371473  9.44268025
   6.20640776  9.96792834  8.41178543
   7.68467257  6.34525921  6.66113774
   8.43381697  6.75013059  8.17760001
   6.51316655  8.36617167  6.51728787
   9.36688250  9.62028078  6.87371971
 


--------------------------------------------------------------------------------------------------------


 use serial FFT for orbitals x direction half grid
 k-point   1 :   0.0000 0.0000 0.0000  plane waves:   33270

 maximum and minimum number of plane-waves per node :     33270    33270

 maximum number of plane-waves:     33270
 maximum index in each direction: 
   IXMAX=   25   IYMAX=   25   IZMAX=   25
   IXMIN=    0   IYMIN=  -25   IZMIN=  -25


 serial   3D FFT for wavefunctions
 parallel 3D FFT for charge:
    minimum data exchange during FFTs selected (reduces bandwidth)


 total amount of memory used by VASP MPI-rank0   277942. kBytes
=======================================================================

   base      :      30000. kBytes
   nonl-proj :      15437. kBytes
   fftplans  :      71598. kBytes
   grid      :     152883. kBytes
   one-center:         26. kBytes
   wavefun   :       7998. kBytes
 
     INWAV:  cpu time      0.0000: real time      0.0000
 Broyden mixing: mesh for mixing (old mesh)
   NGX = 51   NGY = 51   NGZ = 51
  (NGX  =160   NGY  =160   NGZ  =160)
  gives a total of 132651 points

 initial charge density was supplied:
 charge density of overlapping atoms calculated
 number of electron      42.0000000 magnetization 
 keeping initial charge density in first step


--------------------------------------------------------------------------------------------------------


 Maximum index for augmentation-charges          827 (set IRDMAX)


--------------------------------------------------------------------------------------------------------


 First call to EWALD:  gamma=   0.115
 Maximum number of real-space cells 3x 3x 3
 Maximum number of reciprocal cells 3x 3x 3

    FEWALD:  cpu time      0.0012: real time      0.0012


--------------------------------------- Iteration      1(   1)  ---------------------------------------


    POTLOK:  cpu time      2.1346: real time      2.1394
    SETDIJ:  cpu time      0.0054: real time      0.0054
     EDDAV:  cpu time      3.6540: real time      3.6599
       DOS:  cpu time      0.0004: real time      0.0004
    --------------------------------------------
      LOOP:  cpu time      5.7944: real time      5.8052

 eigenvalue-minimisations  :    76
 total energy-change (2. order) : 0.3402888E+03  (-0.1013161E+04)
 number of electron      42.0000000 magnetization 
 augmentation part       42.0000000 magnetization 

 Free energy of the ion-electron system (eV)
  ---------------------------------------------------
  alpha Z        PSCENC =         2.15216506
  Ewald energy   TEWEN  =      2576.68034502
  -Hartree energ DENC   =     -3512.83969339
  -exchange      EXHF   =         0.00000000
  -V(xc)+E(xc)   XCENC  =       131.48412870
  PAW double counting   =       983.79330320     -989.05002801
  entropy T*S    EENTRO =        -0.03281806
  eigenvalues    EBANDS =      -258.57188259
  atomic energy  EATOM  =      1406.67326350
  Solvation  Ediel_sol  =         0.00000000
  ---------------------------------------------------
  free energy    TOTEN  =       340.28878344 eV

  energy without entropy =      340.32160150  energy(sigma->0) =      340.30519247


--------------------------------------------------------------------------------------------------------




--------------------------------------- Iteration      1(   2)  ---------------------------------------


     EDDAV:  cpu time      4.4107: real time      4.4514
       DOS:  cpu time      0.0003: real time      0.0003
    --------------------------------------------
      LOOP:  cpu time      4.4110: real time      4.4518

 eigenvalue-minimisations  :   104
 total energy-change (2. order) :-0.3023809E+03  (-0.2948231E+03)
 number of electron      42.0000000 magnetization 
 augmentation part       42.0000000 magnetization 

 Free energy of the ion-electron system (eV)
  ---------------------------------------------------
  alpha Z        PSCENC =         2.15216506
  Ewald energy   TEWEN  =      2576.68034502
  -Hartree energ DENC   =     -3512.83969339
  -exchange      EXHF   =         0.00000000
  -V(xc)+E(xc)   XCENC  =       131.48412870
  PAW double counting   =       983.79330320     -989.05002801
  entropy T*S    EENTRO =        -0.00000000
  eigenvalues    EBANDS =      -560.98562301
  atomic energy  EATOM  =      1406.67326350
  Solvation  Ediel_sol  =         0.00000000
  ---------------------------------------------------
  free energy    TOTEN  =        37.90786107 eV

  energy without entropy =       37.90786107  energy(sigma->0) =       37.90786107


--------------------------------------------------------------------------------------------------------




--------------------------------------- Iteration      1(   3)  ---------------------------------------


     EDDAV:  cpu time      2.0274: real time      2.0303
       DOS:  cpu time      0.0002: real time      0.0002
    --------------------------------------------
      LOOP:  cpu time      2.0277: real time      2.0305

 eigenvalue-minimisations  :    80
 total energy-change (2. order) :-0.1378891E+03  (-0.1374690E+03)
 number of electron      42.0000000 magnetization 
 augmentation part       42.0000000 magnetization 

 Free energy of the ion-electron system (eV)
  ---------------------------------------------------
  alpha Z        PSCENC =         2.15216506
  Ewald energy   TEWEN  =      2576.68034502
  -Hartree energ DENC   =     -3512.83969339
  -exchange      EXHF   =         0.00000000
  -V(xc)+E(xc)   XCENC  =       131.48412870
  PAW double counting   =       983.79330320     -989.05002801
  entropy T*S    EENTRO =        -0.00000000
  eigenvalues    EBANDS =      -698.87473396
  atomic energy  EATOM  =      1406.67326350
  Solvation  Ediel_sol  =         0.00000000
  ---------------------------------------------------
  free energy    TOTEN  =       -99.98124988 eV

  energy without entropy =      -99.98124988  energy(sigma->0) =      -99.98124988


--------------------------------------------------------------------------------------------------------




--------------------------------------- Iteration      1(   4)  ---------------------------------------


     EDDAV:  cpu time      1.7367: real time      1.7376
       DOS:  cpu time      0.0002: real time      0.0002
    --------------------------------------------
      LOOP:  cpu time      1.7369: real time      1.7378

 eigenvalue-minimisations  :    88
 total energy-change (2. order) :-0.1400394E+02  (-0.1397521E+02)
 number of electron      42.0000000 magnetization 
 augmentation part       42.0000000 magnetization 

 Free energy of the ion-electron system (eV)
  ---------------------------------------------------
  alpha Z        PSCENC =         2.15216506
  Ewald energy   TEWEN  =      2576.68034502
  -Hartree energ DENC   =     -3512.83969339
  -exchange      EXHF   =         0.00000000
  -V(xc)+E(xc)   XCENC  =       131.48412870
  PAW double counting   =       983.79330320     -989.05002801
  entropy T*S    EENTRO =        -0.00000000
  eigenvalues    EBANDS =      -712.87867349
  atomic energy  EATOM  =      1406.67326350
  Solvation  Ediel_sol  =         0.00000000
  ---------------------------------------------------
  free energy    TOTEN  =      -113.98518940 eV

  energy without entropy =     -113.98518940  energy(sigma->0) =     -113.98518940


--------------------------------------------------------------------------------------------------------




--------------------------------------- Iteration      1(   5)  ---------------------------------------


     EDDAV:  cpu time      1.7915: real time      1.7935
       DOS:  cpu time      0.0002: real time      0.0002
    CHARGE:  cpu time      0.2278: real time      0.2279
    MIXING:  cpu time      0.0572: real time      0.0572
    --------------------------------------------
      LOOP:  cpu time      2.0768: real time      2.0788

 eigenvalue-minimisations  :    80
 total energy-change (2. order) :-0.1601518E+00  (-0.1593628E+00)
 number of electron      41.9999980 magnetization 
 augmentation part        1.2120989 magnetization 

 Broyden mixing:
  rms(total) = 0.16984E+01    rms(broyden)= 0.16978E+01
  rms(prec ) = 0.19610E+01
  weight for this iteration     100.00

 Free energy of the ion-electron system (eV)
  ---------------------------------------------------
  alpha Z        PSCENC =         2.15216506
  Ewald energy   TEWEN  =      2576.68034502
  -Hartree energ DENC   =     -3512.83969339
  -exchange      EXHF   =         0.00000000
  -V(xc)+E(xc)   XCENC  =       131.48412870
  PAW double counting   =       983.79330320     -989.05002801
  entropy T*S    EENTRO =        -0.00000000
  eigenvalues    EBANDS =      -713.03882531
  atomic energy  EATOM  =      1406.67326350
  Solvation  Ediel_sol  =         0.00000000
  ---------------------------------------------------
  free energy    TOTEN  =      -114.14534123 eV

  energy without entropy =     -114.14534123  energy(sigma->0) =     -114.14534123


--------------------------------------------------------------------------------------------------------




--------------------------------------- Iteration      1(   6)  ---------------------------------------


    POTLOK:  cpu time      1.7827: real time      1.7829
    SETDIJ:  cpu time      0.0275: real time      0.0275
    EDDIAG:  cpu time      0.5552: real time      0.5556
  RMM-DIIS:  cpu time      3.0387: real time      3.0390
    ORTHCH:  cpu time      0.0323: real time      0.0410
       DOS:  cpu time      0.0003: real time      0.0003
    CHARGE:  cpu time      0.3479: real time      0.3481
    MIXING:  cpu time      0.0919: real time      0.0919
    --------------------------------------------
      LOOP:  cpu time      5.8766: real time      5.8864

 eigenvalue-minimisations  :    60
 total energy-change (2. order) : 0.8440252E+01  (-0.1157016E+01)
 number of electron      41.9999983 magnetization 
 augmentation part        1.1184416 magnetization 

 Broyden mixing:
  rms(total) = 0.92656E+00    rms(broyden)= 0.92645E+00
  rms(prec ) = 0.10517E+01
  weight for this iteration     100.00

 eigenvalues of (default mixing * dielectric matrix)
  average eigenvalue GAMMA=   1.6639
  1.6639

 Free energy of the ion-electron system (eV)
  ---------------------------------------------------
  alpha Z        PSCENC =         2.15216506
  Ewald energy   TEWEN  =      2576.68034502
  -Hartree energ DENC   =     -3596.24237589
  -exchange      EXHF   =         0.00000000
  -V(xc)+E(xc)   XCENC  =       135.57730390
  PAW double counting   =      1778.13610940    -1784.19779831
  entropy T*S    EENTRO =        -0.00000000
  eigenvalues    EBANDS =      -624.48410219
  atomic energy  EATOM  =      1406.67326350
  Solvation  Ediel_sol  =         0.00000000
  ---------------------------------------------------
  free energy    TOTEN  =      -105.70508951 eV

  energy without entropy =     -105.70508951  energy(sigma->0) =     -105.70508951


--------------------------------------------------------------------------------------------------------




--------------------------------------- Iteration      1(   7)  ---------------------------------------


    POTLOK:  cpu time      2.1098: real time      2.1101
    SETDIJ:  cpu time      0.0297: real time      0.0297
    EDDIAG:  cpu time      0.6181: real time      0.6181
  RMM-DIIS:  cpu time      2.9175: real time      2.9177
    ORTHCH:  cpu time      0.0302: real time      0.0307
       DOS:  cpu time      0.0003: real time      0.0003
    CHARGE:  cpu time      0.3807: real time      0.3807
    MIXING:  cpu time      0.0903: real time      0.0904
    --------------------------------------------
      LOOP:  cpu time      6.1765: real time      6.1777

 eigenvalue-minimisations  :    60
 total energy-change (2. order) : 0.2073847E+01  (-0.1065728E+01)
 number of electron      41.9999984 magnetization 
 augmentation part        1.0664460 magnetization 

 Broyden mixing:
  rms(total) = 0.40291E+00    rms(broyden)= 0.40270E+00
  rms(prec ) = 0.44091E+00
  weight for this iteration     100.00

 eigenvalues of (default mixing * dielectric matrix)
  average eigenvalue GAMMA=   1.4012
  0.9383  1.8641

 Free energy of the ion-electron system (eV)
  ---------------------------------------------------
  alpha Z        PSCENC =         2.15216506
  Ewald energy   TEWEN  =      2576.68034502
  -Hartree energ DENC   =     -3670.57266478
  -exchange      EXHF   =         0.00000000
  -V(xc)+E(xc)   XCENC  =       139.32194274
  PAW double counting   =      2828.23912501    -2834.79085317
  entropy T*S    EENTRO =        -0.00000000
  eigenvalues    EBANDS =      -551.33456601
  atomic energy  EATOM  =      1406.67326350
  Solvation  Ediel_sol  =         0.00000000
  ---------------------------------------------------
  free energy    TOTEN  =      -103.63124263 eV

  energy without entropy =     -103.63124263  energy(sigma->0) =     -103.63124263


--------------------------------------------------------------------------------------------------------




--------------------------------------- Iteration      1(   8)  ---------------------------------------


    POTLOK:  cpu time      2.3691: real time      2.3700
    SETDIJ:  cpu time      0.0061: real time      0.0061
    EDDIAG:  cpu time      0.6326: real time      0.6329
  RMM-DIIS:  cpu time      3.1243: real time      3.2019
    ORTHCH:  cpu time      0.0217: real time      0.0217
       DOS:  cpu time      0.0002: real time      0.0002
    CHARGE:  cpu time      0.3637: real time      0.3637
    MIXING:  cpu time      0.0637: real time      0.0637
    --------------------------------------------
      LOOP:  cpu time      6.5814: real time      6.6601

 eigenvalue-minimisations  :    60
 total energy-change (2. order) : 0.1892121E+00  (-0.7720473E-01)
 number of electron      41.9999985 magnetization 
 augmentation part        1.0516438 magnetization 

 Broyden mixing:
  rms(total) = 0.24681E+00    rms(broyden)= 0.24677E+00
  rms(prec ) = 0.27099E+00
  weight for this iteration     100.00

 eigenvalues of (default mixing * dielectric matrix)
  average eigenvalue GAMMA=   1.7855
  2.7338  1.8420  0.7807

 Free energy of the ion-electron system (eV)
  ---------------------------------------------------
  alpha Z        PSCENC =         2.15216506
  Ewald energy   TEWEN  =      2576.68034502
  -Hartree energ DENC   =     -3681.61271535
  -exchange      EXHF   =         0.00000000
  -V(xc)+E(xc)   XCENC  =       140.07466633
  PAW double counting   =      3154.68433864    -3161.18895786
  entropy T*S    EENTRO =        -0.00000000
  eigenvalues    EBANDS =      -540.90513593
  atomic energy  EATOM  =      1406.67326350
  Solvation  Ediel_sol  =         0.00000000
  ---------------------------------------------------
  free energy    TOTEN  =      -103.44203057 eV

  energy without entropy =     -103.44203057  energy(sigma->0) =     -103.44203057


--------------------------------------------------------------------------------------------------------




--------------------------------------- Iteration      1(   9)  ---------------------------------------


    POTLOK:  cpu time      2.2155: real time      2.2170
    SETDIJ:  cpu time      0.0062: real time      0.0062
    EDDIAG:  cpu time      0.6130: real time      0.6130
  RMM-DIIS:  cpu time      2.9727: real time      2.9745
    ORTHCH:  cpu time      0.0249: real time      0.0249
       DOS:  cpu time      0.0002: real time      0.0002
    CHARGE:  cpu time      0.4074: real time      0.4075
    MIXING:  cpu time      0.0885: real time      0.0885
    --------------------------------------------
      LOOP:  cpu time      6.3285: real time      6.3318

 eigenvalue-minimisations  :    60
 total energy-change (2. order) : 0.1065247E+00  (-0.5074313E-01)
 number of electron      41.9999984 magnetization 
 augmentation part        1.0494709 magnetization 

 Broyden mixing:
  rms(total) = 0.74733E-01    rms(broyden)= 0.74718E-01
  rms(prec ) = 0.97094E-01
  weight for this iteration     100.00

 eigenvalues of (default mixing * dielectric matrix)
  average eigenvalue GAMMA=   1.4682
  2.2863  1.7480  0.8711  0.9676

 Free energy of the ion-electron system (eV)
  ---------------------------------------------------
  alpha Z        PSCENC =         2.15216506
  Ewald energy   TEWEN  =      2576.68034502
  -Hartree energ DENC   =     -3691.88011579
  -exchange      EXHF   =         0.00000000
  -V(xc)+E(xc)   XCENC  =       140.77486420
  PAW double counting   =      3598.64833831    -3604.95700757
  entropy T*S    EENTRO =        -0.00000000
  eigenvalues    EBANDS =      -531.42735859
  atomic energy  EATOM  =      1406.67326350
  Solvation  Ediel_sol  =         0.00000000
  ---------------------------------------------------
  free energy    TOTEN  =      -103.33550585 eV

  energy without entropy =     -103.33550585  energy(sigma->0) =     -103.33550585


--------------------------------------------------------------------------------------------------------




--------------------------------------- Iteration      1(  10)  ---------------------------------------


    POTLOK:  cpu time      2.3168: real time      2.3171
    SETDIJ:  cpu time      0.0057: real time      0.0057
    EDDIAG:  cpu time      0.6551: real time      0.6552
  RMM-DIIS:  cpu time      3.4531: real time      3.4539
    ORTHCH:  cpu time      0.0315: real time      0.0400
       DOS:  cpu time      0.0003: real time      0.0003
    CHARGE:  cpu time      0.4442: real time      0.4443
    MIXING:  cpu time      0.0866: real time      0.0866
    --------------------------------------------
      LOOP:  cpu time      6.9934: real time      7.0032

 eigenvalue-minimisations  :    63
 total energy-change (2. order) : 0.6192275E-02  (-0.7788239E-02)
 number of electron      41.9999984 magnetization 
 augmentation part        1.0478045 magnetization 

 Broyden mixing:
  rms(total) = 0.34619E-01    rms(broyden)= 0.34611E-01
  rms(prec ) = 0.58209E-01
  weight for this iteration     100.00

 eigenvalues of (default mixing * dielectric matrix)
  average eigenvalue GAMMA=   1.5843
  2.2271  2.2271  1.6507  0.9891  0.8275

 Free energy of the ion-electron system (eV)
  ---------------------------------------------------
  alpha Z        PSCENC =         2.15216506
  Ewald energy   TEWEN  =      2576.68034502
  -Hartree energ DENC   =     -3694.25724941
  -exchange      EXHF   =         0.00000000
  -V(xc)+E(xc)   XCENC  =       140.75267683
  PAW double counting   =      3540.57239226    -3546.91951114
  entropy T*S    EENTRO =        -0.00000000
  eigenvalues    EBANDS =      -528.98339571
  atomic energy  EATOM  =      1406.67326350
  Solvation  Ediel_sol  =         0.00000000
  ---------------------------------------------------
  free energy    TOTEN  =      -103.32931358 eV

  energy without entropy =     -103.32931358  energy(sigma->0) =     -103.32931358


--------------------------------------------------------------------------------------------------------




--------------------------------------- Iteration      1(  11)  ---------------------------------------


    POTLOK:  cpu time      2.3081: real time      2.3082
    SETDIJ:  cpu time      0.0060: real time      0.0060
    EDDIAG:  cpu time      0.6279: real time      0.6280
  RMM-DIIS:  cpu time      3.1697: real time      3.1701
    ORTHCH:  cpu time      0.0218: real time      0.0226
       DOS:  cpu time      0.0003: real time      0.0003
    CHARGE:  cpu time      0.3116: real time      0.3116
    MIXING:  cpu time      0.0762: real time      0.0762
    --------------------------------------------
      LOOP:  cpu time      6.5215: real time      6.5229

 eigenvalue-minimisations  :    60
 total energy-change (2. order) :-0.1174400E-01  (-0.1418174E-01)
 number of electron      41.9999985 magnetization 
 augmentation part        1.0458727 magnetization 

 Broyden mixing:
  rms(total) = 0.46956E-01    rms(broyden)= 0.46948E-01
  rms(prec ) = 0.59012E-01
  weight for this iteration     100.00

 eigenvalues of (default mixing * dielectric matrix)
  average eigenvalue GAMMA=   1.4953
  2.3836  2.3836  1.2818  1.2818  0.8204  0.8204

 Free energy of the ion-electron system (eV)
  ---------------------------------------------------
  alpha Z        PSCENC =         2.15216506
  Ewald energy   TEWEN  =      2576.68034502
  -Hartree energ DENC   =     -3703.20909076
  -exchange      EXHF   =         0.00000000
  -V(xc)+E(xc)   XCENC  =       140.81594402
  PAW double counting   =      3494.62812227    -3500.98515101
  entropy T*S    EENTRO =        -0.00000000
  eigenvalues    EBANDS =      -520.09665569
  atomic energy  EATOM  =      1406.67326350
  Solvation  Ediel_sol  =         0.00000000
  ---------------------------------------------------
  free energy    TOTEN  =      -103.34105758 eV

  energy without entropy =     -103.34105758  energy(sigma->0) =     -103.34105758


--------------------------------------------------------------------------------------------------------




--------------------------------------- Iteration      1(  12)  ---------------------------------------


    POTLOK:  cpu time      2.2129: real time      2.2134
    SETDIJ:  cpu time      0.0057: real time      0.0057
    EDDIAG:  cpu time      0.6255: real time      0.6257
  RMM-DIIS:  cpu time      3.3644: real time      3.3650
    ORTHCH:  cpu time      0.0231: real time      0.0316
       DOS:  cpu time      0.0002: real time      0.0002
    CHARGE:  cpu time      0.4105: real time      0.4105
    MIXING:  cpu time      0.0979: real time      0.0979
    --------------------------------------------
      LOOP:  cpu time      6.7403: real time      6.7501

 eigenvalue-minimisations  :    61
 total energy-change (2. order) : 0.6437928E-02  (-0.1302837E-02)
 number of electron      41.9999985 magnetization 
 augmentation part        1.0447738 magnetization 

 Broyden mixing:
  rms(total) = 0.28414E-01    rms(broyden)= 0.28413E-01
  rms(prec ) = 0.38805E-01
  weight for this iteration     100.00

 eigenvalues of (default mixing * dielectric matrix)
  average eigenvalue GAMMA=   1.5005
  2.4537  2.4537  1.3978  1.3978  0.8059  0.9974  0.9974

 Free energy of the ion-electron system (eV)
  ---------------------------------------------------
  alpha Z        PSCENC =         2.15216506
  Ewald energy   TEWEN  =      2576.68034502
  -Hartree energ DENC   =     -3703.65841054
  -exchange      EXHF   =         0.00000000
  -V(xc)+E(xc)   XCENC  =       140.84810274
  PAW double counting   =      3516.65977063    -3522.99968834
  entropy T*S    EENTRO =        -0.00000000
  eigenvalues    EBANDS =      -519.69016772
  atomic energy  EATOM  =      1406.67326350
  Solvation  Ediel_sol  =         0.00000000
  ---------------------------------------------------
  free energy    TOTEN  =      -103.33461965 eV

  energy without entropy =     -103.33461965  energy(sigma->0) =     -103.33461965


--------------------------------------------------------------------------------------------------------




--------------------------------------- Iteration      1(  13)  ---------------------------------------


    POTLOK:  cpu time      2.2024: real time      2.2116
    SETDIJ:  cpu time      0.0059: real time      0.0059
    EDDIAG:  cpu time      0.5869: real time      0.5870
  RMM-DIIS:  cpu time      3.1591: real time      3.1595
    ORTHCH:  cpu time      0.0290: real time      0.0293
       DOS:  cpu time      0.0003: real time      0.0003
    CHARGE:  cpu time      0.4006: real time      0.4008
    MIXING:  cpu time      0.1001: real time      0.1001
    --------------------------------------------
      LOOP:  cpu time      6.4844: real time      6.4945

 eigenvalue-minimisations  :    60
 total energy-change (2. order) :-0.5208364E-02  (-0.2687705E-02)
 number of electron      41.9999985 magnetization 
 augmentation part        1.0450254 magnetization 

 Broyden mixing:
  rms(total) = 0.11143E-01    rms(broyden)= 0.11139E-01
  rms(prec ) = 0.17844E-01
  weight for this iteration     100.00

 eigenvalues of (default mixing * dielectric matrix)
  average eigenvalue GAMMA=   1.6827
  3.8397  2.5299  1.8564  1.3078  1.3078  0.7970  0.9116  0.9116

 Free energy of the ion-electron system (eV)
  ---------------------------------------------------
  alpha Z        PSCENC =         2.15216506
  Ewald energy   TEWEN  =      2576.68034502
  -Hartree energ DENC   =     -3705.08682664
  -exchange      EXHF   =         0.00000000
  -V(xc)+E(xc)   XCENC  =       140.84835148
  PAW double counting   =      3506.95743076    -3513.27924917
  entropy T*S    EENTRO =        -0.00000000
  eigenvalues    EBANDS =      -518.28530803
  atomic energy  EATOM  =      1406.67326350
  Solvation  Ediel_sol  =         0.00000000
  ---------------------------------------------------
  free energy    TOTEN  =      -103.33982802 eV

  energy without entropy =     -103.33982802  energy(sigma->0) =     -103.33982802


--------------------------------------------------------------------------------------------------------




--------------------------------------- Iteration      1(  14)  ---------------------------------------


    POTLOK:  cpu time      2.1055: real time      2.1144
    SETDIJ:  cpu time      0.0066: real time      0.0066
    EDDIAG:  cpu time      0.6653: real time      0.6654
  RMM-DIIS:  cpu time      3.3939: real time      3.3942
    ORTHCH:  cpu time      0.0276: real time      0.0277
       DOS:  cpu time      0.0003: real time      0.0003
    CHARGE:  cpu time      0.3775: real time      0.3776
    MIXING:  cpu time      0.1200: real time      0.1200
    --------------------------------------------
      LOOP:  cpu time      6.6968: real time      6.7060

 eigenvalue-minimisations  :    61
 total energy-change (2. order) :-0.3308864E-02  (-0.5073603E-03)
 number of electron      41.9999985 magnetization 
 augmentation part        1.0444472 magnetization 

 Broyden mixing:
  rms(total) = 0.79807E-02    rms(broyden)= 0.79785E-02
  rms(prec ) = 0.11944E-01
  weight for this iteration     100.00

 eigenvalues of (default mixing * dielectric matrix)
  average eigenvalue GAMMA=   1.7717
  4.2175  2.3922  2.3922  1.6975  1.2965  1.2965  0.7982  0.9273  0.9273

 Free energy of the ion-electron system (eV)
  ---------------------------------------------------
  alpha Z        PSCENC =         2.15216506
  Ewald energy   TEWEN  =      2576.68034502
  -Hartree energ DENC   =     -3707.90778565
  -exchange      EXHF   =         0.00000000
  -V(xc)+E(xc)   XCENC  =       140.90613753
  PAW double counting   =      3509.58469736    -3515.91294126
  entropy T*S    EENTRO =        -0.00000000
  eigenvalues    EBANDS =      -515.51901845
  atomic energy  EATOM  =      1406.67326350
  Solvation  Ediel_sol  =         0.00000000
  ---------------------------------------------------
  free energy    TOTEN  =      -103.34313688 eV

  energy without entropy =     -103.34313688  energy(sigma->0) =     -103.34313688


--------------------------------------------------------------------------------------------------------




--------------------------------------- Iteration      1(  15)  ---------------------------------------


    POTLOK:  cpu time      2.2561: real time      2.2563
    SETDIJ:  cpu time      0.0060: real time      0.0060
    EDDIAG:  cpu time      0.6451: real time      0.6452
  RMM-DIIS:  cpu time      3.1309: real time      3.1310
    ORTHCH:  cpu time      0.0322: real time      0.0407
       DOS:  cpu time      0.0003: real time      0.0003
    CHARGE:  cpu time      0.4163: real time      0.4163
    MIXING:  cpu time      0.1216: real time      0.1216
    --------------------------------------------
      LOOP:  cpu time      6.6085: real time      6.6175

 eigenvalue-minimisations  :    61
 total energy-change (2. order) :-0.1074742E-01  (-0.3024421E-03)
 number of electron      41.9999985 magnetization 
 augmentation part        1.0438130 magnetization 

 Broyden mixing:
  rms(total) = 0.31113E-02    rms(broyden)= 0.31101E-02
  rms(prec ) = 0.53399E-02
  weight for this iteration     100.00

 eigenvalues of (default mixing * dielectric matrix)
  average eigenvalue GAMMA=   1.9082
  5.9428  2.7585  2.0970  2.0970  1.3154  1.3154  0.9228  0.9228  0.8066  0.9035

 Free energy of the ion-electron system (eV)
  ---------------------------------------------------
  alpha Z        PSCENC =         2.15216506
  Ewald energy   TEWEN  =      2576.68034502
  -Hartree energ DENC   =     -3709.38173280
  -exchange      EXHF   =         0.00000000
  -V(xc)+E(xc)   XCENC  =       140.92050879
  PAW double counting   =      3511.04590016    -3517.38046578
  entropy T*S    EENTRO =        -0.00000000
  eigenvalues    EBANDS =      -514.06386825
  atomic energy  EATOM  =      1406.67326350
  Solvation  Ediel_sol  =         0.00000000
  ---------------------------------------------------
  free energy    TOTEN  =      -103.35388430 eV

  energy without entropy =     -103.35388430  energy(sigma->0) =     -103.35388430


--------------------------------------------------------------------------------------------------------




--------------------------------------- Iteration      1(  16)  ---------------------------------------


    POTLOK:  cpu time      2.2459: real time      2.2460
    SETDIJ:  cpu time      0.0061: real time      0.0061
    EDDIAG:  cpu time      0.6077: real time      0.6078
  RMM-DIIS:  cpu time      3.0419: real time      3.0423
    ORTHCH:  cpu time      0.0310: real time      0.0310
       DOS:  cpu time      0.0002: real time      0.0002
    CHARGE:  cpu time      0.4596: real time      0.4598
    MIXING:  cpu time      0.1336: real time      0.1347
    --------------------------------------------
      LOOP:  cpu time      6.5261: real time      6.5280

 eigenvalue-minimisations  :    65
 total energy-change (2. order) :-0.3561746E-02  (-0.1146215E-03)
 number of electron      41.9999985 magnetization 
 augmentation part        1.0435779 magnetization 

 Broyden mixing:
  rms(total) = 0.32129E-02    rms(broyden)= 0.32125E-02
  rms(prec ) = 0.45924E-02
  weight for this iteration     100.00

 eigenvalues of (default mixing * dielectric matrix)
  average eigenvalue GAMMA=   2.0210
  6.5906  3.0362  2.2134  2.2134  1.8837  1.3300  1.3300  0.9592  0.9592  0.7997
  0.9155

 Free energy of the ion-electron system (eV)
  ---------------------------------------------------
  alpha Z        PSCENC =         2.15216506
  Ewald energy   TEWEN  =      2576.68034502
  -Hartree energ DENC   =     -3709.48819601
  -exchange      EXHF   =         0.00000000
  -V(xc)+E(xc)   XCENC  =       140.90716238
  PAW double counting   =      3508.38635648    -3514.72048756
  entropy T*S    EENTRO =        -0.00000000
  eigenvalues    EBANDS =      -513.94805492
  atomic energy  EATOM  =      1406.67326350
  Solvation  Ediel_sol  =         0.00000000
  ---------------------------------------------------
  free energy    TOTEN  =      -103.35744605 eV

  energy without entropy =     -103.35744605  energy(sigma->0) =     -103.35744605


--------------------------------------------------------------------------------------------------------




--------------------------------------- Iteration      1(  17)  ---------------------------------------


    POTLOK:  cpu time      2.1146: real time      2.1155
    SETDIJ:  cpu time      0.0057: real time      0.0057
    EDDIAG:  cpu time      0.6136: real time      0.6172
  RMM-DIIS:  cpu time      2.4844: real time      2.5054
    ORTHCH:  cpu time      0.0111: real time      0.0135
       DOS:  cpu time      0.0002: real time      0.0002
    CHARGE:  cpu time      0.2651: real time      0.2657
    MIXING:  cpu time      0.0837: real time      0.0837
    --------------------------------------------
      LOOP:  cpu time      5.5784: real time      5.6068

 eigenvalue-minimisations  :    60
 total energy-change (2. order) :-0.4049904E-02  (-0.9860986E-04)
 number of electron      41.9999985 magnetization 
 augmentation part        1.0437090 magnetization 

 Broyden mixing:
  rms(total) = 0.20051E-02    rms(broyden)= 0.20047E-02
  rms(prec ) = 0.25841E-02
  weight for this iteration     100.00

 eigenvalues of (default mixing * dielectric matrix)
  average eigenvalue GAMMA=   2.0578
  7.5277  3.7015  2.3975  1.9029  1.9029  1.3259  1.3259  1.0375  1.0375  0.7993
  0.8678  0.8678

 Free energy of the ion-electron system (eV)
  ---------------------------------------------------
  alpha Z        PSCENC =         2.15216506
  Ewald energy   TEWEN  =      2576.68034502
  -Hartree energ DENC   =     -3709.06042864
  -exchange      EXHF   =         0.00000000
  -V(xc)+E(xc)   XCENC  =       140.88138062
  PAW double counting   =      3508.62312787    -3514.95331164
  entropy T*S    EENTRO =        -0.00000000
  eigenvalues    EBANDS =      -514.35803774
  atomic energy  EATOM  =      1406.67326350
  Solvation  Ediel_sol  =         0.00000000
  ---------------------------------------------------
  free energy    TOTEN  =      -103.36149595 eV

  energy without entropy =     -103.36149595  energy(sigma->0) =     -103.36149595


--------------------------------------------------------------------------------------------------------




--------------------------------------- Iteration      1(  18)  ---------------------------------------


    POTLOK:  cpu time      1.4969: real time      1.5032
    SETDIJ:  cpu time      0.0204: real time      0.0204
    EDDIAG:  cpu time      0.3111: real time      0.3114
  RMM-DIIS:  cpu time      1.7749: real time      1.8457
    ORTHCH:  cpu time      0.0165: real time      0.0171
       DOS:  cpu time      0.0003: real time      0.0003
    CHARGE:  cpu time      0.3197: real time      0.3204
    MIXING:  cpu time      0.0945: real time      0.0946
    --------------------------------------------
      LOOP:  cpu time      4.0344: real time      4.1131

 eigenvalue-minimisations  :    60
 total energy-change (2. order) :-0.4610639E-03  (-0.2524780E-04)
 number of electron      41.9999985 magnetization 
 augmentation part        1.0436473 magnetization 

 Broyden mixing:
  rms(total) = 0.17939E-02    rms(broyden)= 0.17937E-02
  rms(prec ) = 0.21981E-02
  weight for this iteration     100.00

 eigenvalues of (default mixing * dielectric matrix)
  average eigenvalue GAMMA=   2.0291
  7.7219  3.7175  2.1936  1.9046  1.7594  1.7594  1.3244  1.3244  0.7960  1.0027
  1.0027  0.9360  0.9360

 Free energy of the ion-electron system (eV)
  ---------------------------------------------------
  alpha Z        PSCENC =         2.15216506
  Ewald energy   TEWEN  =      2576.68034502
  -Hartree energ DENC   =     -3709.14977177
  -exchange      EXHF   =         0.00000000
  -V(xc)+E(xc)   XCENC  =       140.88378738
  PAW double counting   =      3509.45936046    -3515.78996471
  entropy T*S    EENTRO =        -0.00000000
  eigenvalues    EBANDS =      -514.27114196
  atomic energy  EATOM  =      1406.67326350
  Solvation  Ediel_sol  =         0.00000000
  ---------------------------------------------------
  free energy    TOTEN  =      -103.36195702 eV

  energy without entropy =     -103.36195702  energy(sigma->0) =     -103.36195702


--------------------------------------------------------------------------------------------------------




--------------------------------------- Iteration      1(  19)  ---------------------------------------


    POTLOK:  cpu time      0.8701: real time      0.8734
    SETDIJ:  cpu time      0.0072: real time      0.0072
    EDDIAG:  cpu time      0.2136: real time      0.2138
  RMM-DIIS:  cpu time      1.2530: real time      1.2543
    ORTHCH:  cpu time      0.0076: real time      0.0076
       DOS:  cpu time      0.0001: real time      0.0001
    CHARGE:  cpu time      0.1720: real time      0.1720
    MIXING:  cpu time      0.0770: real time      0.0770
    --------------------------------------------
      LOOP:  cpu time      2.6005: real time      2.6055

 eigenvalue-minimisations  :    59
 total energy-change (2. order) :-0.6570159E-03  (-0.1552349E-04)
 number of electron      41.9999985 magnetization 
 augmentation part        1.0435626 magnetization 

 Broyden mixing:
  rms(total) = 0.13475E-02    rms(broyden)= 0.13473E-02
  rms(prec ) = 0.15962E-02
  weight for this iteration     100.00

 eigenvalues of (default mixing * dielectric matrix)
  average eigenvalue GAMMA=   2.1622
  8.5149  4.8909  2.5822  2.3442  2.0498  1.3203  1.3203  1.3694  1.3694  0.7976
  0.9035  0.9035  0.9838  0.9208

 Free energy of the ion-electron system (eV)
  ---------------------------------------------------
  alpha Z        PSCENC =         2.15216506
  Ewald energy   TEWEN  =      2576.68034502
  -Hartree energ DENC   =     -3709.17453729
  -exchange      EXHF   =         0.00000000
  -V(xc)+E(xc)   XCENC  =       140.88244365
  PAW double counting   =      3507.79464147    -3514.12678021
  entropy T*S    EENTRO =        -0.00000000
  eigenvalues    EBANDS =      -514.24415524
  atomic energy  EATOM  =      1406.67326350
  Solvation  Ediel_sol  =         0.00000000
  ---------------------------------------------------
  free energy    TOTEN  =      -103.36261403 eV

  energy without entropy =     -103.36261403  energy(sigma->0) =     -103.36261403


--------------------------------------------------------------------------------------------------------




--------------------------------------- Iteration      1(  20)  ---------------------------------------


    POTLOK:  cpu time      1.0783: real time      1.0784
    SETDIJ:  cpu time      0.0206: real time      0.0207
    EDDIAG:  cpu time      0.3750: real time      0.3751
  RMM-DIIS:  cpu time      1.0977: real time      1.0978
    ORTHCH:  cpu time      0.0111: real time      0.0111
       DOS:  cpu time      0.0001: real time      0.0001
    CHARGE:  cpu time      0.2081: real time      0.2081
    MIXING:  cpu time      0.0903: real time      0.0903
    --------------------------------------------
      LOOP:  cpu time      2.8812: real time      2.8815

 eigenvalue-minimisations  :    48
 total energy-change (2. order) :-0.2077032E-03  (-0.3092655E-05)
 number of electron      41.9999985 magnetization 
 augmentation part        1.0435623 magnetization 

 Broyden mixing:
  rms(total) = 0.79884E-03    rms(broyden)= 0.79879E-03
  rms(prec ) = 0.96960E-03
  weight for this iteration     100.00

 eigenvalues of (default mixing * dielectric matrix)
  average eigenvalue GAMMA=   2.1842
  8.4992  5.1883  2.6951  2.3200  2.3200  1.3193  1.3193  1.4965  1.4965  1.5349
  0.9865  0.9865  0.7968  0.9022  0.9022

 Free energy of the ion-electron system (eV)
  ---------------------------------------------------
  alpha Z        PSCENC =         2.15216506
  Ewald energy   TEWEN  =      2576.68034502
  -Hartree energ DENC   =     -3709.15357712
  -exchange      EXHF   =         0.00000000
  -V(xc)+E(xc)   XCENC  =       140.88149310
  PAW double counting   =      3508.44397726    -3514.77539801
  entropy T*S    EENTRO =        -0.00000000
  eigenvalues    EBANDS =      -514.26509055
  atomic energy  EATOM  =      1406.67326350
  Solvation  Ediel_sol  =         0.00000000
  ---------------------------------------------------
  free energy    TOTEN  =      -103.36282173 eV

  energy without entropy =     -103.36282173  energy(sigma->0) =     -103.36282173


--------------------------------------------------------------------------------------------------------




--------------------------------------- Iteration      1(  21)  ---------------------------------------


    POTLOK:  cpu time      1.1353: real time      1.1356
    SETDIJ:  cpu time      0.0207: real time      0.0207
    EDDIAG:  cpu time      0.2950: real time      0.2952
  RMM-DIIS:  cpu time      1.1506: real time      1.1780
    ORTHCH:  cpu time      0.0139: real time      0.0139
       DOS:  cpu time      0.0001: real time      0.0001
    CHARGE:  cpu time      0.1729: real time      0.1729
    MIXING:  cpu time      0.0691: real time      0.0692
    --------------------------------------------
      LOOP:  cpu time      2.8576: real time      2.8856

 eigenvalue-minimisations  :    42
 total energy-change (2. order) :-0.1326262E-03  (-0.2291297E-05)
 number of electron      41.9999985 magnetization 
 augmentation part        1.0435526 magnetization 

 Broyden mixing:
  rms(total) = 0.27172E-03    rms(broyden)= 0.27163E-03
  rms(prec ) = 0.35719E-03
  weight for this iteration     100.00

 eigenvalues of (default mixing * dielectric matrix)
  average eigenvalue GAMMA=   2.2170
  8.9764  5.5156  3.3982  2.5558  2.1232  2.1232  1.3110  1.3110  1.3491  1.3491
  0.9889  0.9889  0.7971  0.9034  0.9034  0.8775

 Free energy of the ion-electron system (eV)
  ---------------------------------------------------
  alpha Z        PSCENC =         2.15216506
  Ewald energy   TEWEN  =      2576.68034502
  -Hartree energ DENC   =     -3709.15839040
  -exchange      EXHF   =         0.00000000
  -V(xc)+E(xc)   XCENC  =       140.88230662
  PAW double counting   =      3508.60515269    -3514.93645079
  entropy T*S    EENTRO =        -0.00000000
  eigenvalues    EBANDS =      -514.26134608
  atomic energy  EATOM  =      1406.67326350
  Solvation  Ediel_sol  =         0.00000000
  ---------------------------------------------------
  free energy    TOTEN  =      -103.36295436 eV

  energy without entropy =     -103.36295436  energy(sigma->0) =     -103.36295436


--------------------------------------------------------------------------------------------------------




--------------------------------------- Iteration      1(  22)  ---------------------------------------


    POTLOK:  cpu time      1.2701: real time      1.2789
    SETDIJ:  cpu time      0.0047: real time      0.0047
    EDDIAG:  cpu time      0.3198: real time      0.3202
  RMM-DIIS:  cpu time      0.9043: real time      0.9045
    ORTHCH:  cpu time      0.0143: real time      0.0143
       DOS:  cpu time      0.0002: real time      0.0002
    CHARGE:  cpu time      0.1711: real time      0.1711
    MIXING:  cpu time      0.0763: real time      0.0763
    --------------------------------------------
      LOOP:  cpu time      2.7609: real time      2.7703

 eigenvalue-minimisations  :    39
 total energy-change (2. order) :-0.3353026E-04  (-0.3824474E-06)
 number of electron      41.9999985 magnetization 
 augmentation part        1.0435643 magnetization 

 Broyden mixing:
  rms(total) = 0.16623E-03    rms(broyden)= 0.16617E-03
  rms(prec ) = 0.21889E-03
  weight for this iteration     100.00

 eigenvalues of (default mixing * dielectric matrix)
  average eigenvalue GAMMA=   2.2231
  9.0283  5.7235  3.5178  2.4955  2.4955  1.9667  1.7644  1.2847  1.2847  1.3041
  1.3041  1.0386  1.0386  0.7973  0.9146  0.9146  0.9204

 Free energy of the ion-electron system (eV)
  ---------------------------------------------------
  alpha Z        PSCENC =         2.15216506
  Ewald energy   TEWEN  =      2576.68034502
  -Hartree energ DENC   =     -3709.15700965
  -exchange      EXHF   =         0.00000000
  -V(xc)+E(xc)   XCENC  =       140.88207781
  PAW double counting   =      3508.45543148    -3514.78658079
  entropy T*S    EENTRO =        -0.00000000
  eigenvalues    EBANDS =      -514.26268032
  atomic energy  EATOM  =      1406.67326350
  Solvation  Ediel_sol  =         0.00000000
  ---------------------------------------------------
  free energy    TOTEN  =      -103.36298789 eV

  energy without entropy =     -103.36298789  energy(sigma->0) =     -103.36298789


--------------------------------------------------------------------------------------------------------




--------------------------------------- Iteration      1(  23)  ---------------------------------------


    POTLOK:  cpu time      1.0776: real time      1.0779
    SETDIJ:  cpu time      0.0047: real time      0.0047
    EDDIAG:  cpu time      0.2057: real time      0.2058
  RMM-DIIS:  cpu time      0.7674: real time      0.7674
    ORTHCH:  cpu time      0.0116: real time      0.0116
       DOS:  cpu time      0.0001: real time      0.0001
    CHARGE:  cpu time      0.1798: real time      0.1798
    MIXING:  cpu time      0.1037: real time      0.1038
    --------------------------------------------
      LOOP:  cpu time      2.3506: real time      2.3510

 eigenvalue-minimisations  :    34
 total energy-change (2. order) :-0.2567883E-04  (-0.1417238E-06)
 number of electron      41.9999985 magnetization 
 augmentation part        1.0435722 magnetization 

 Broyden mixing:
  rms(total) = 0.16081E-03    rms(broyden)= 0.16078E-03
  rms(prec ) = 0.19278E-03
  weight for this iteration     100.00

 eigenvalues of (default mixing * dielectric matrix)
  average eigenvalue GAMMA=   2.2812
  9.1388  6.2395  4.3699  2.8079  2.4714  2.0704  2.0704  1.3106  1.3106  1.3561
  1.3561  0.7973  1.0184  1.0184  0.9118  0.9118  0.9506  0.9506

 Free energy of the ion-electron system (eV)
  ---------------------------------------------------
  alpha Z        PSCENC =         2.15216506
  Ewald energy   TEWEN  =      2576.68034502
  -Hartree energ DENC   =     -3709.15203044
  -exchange      EXHF   =         0.00000000
  -V(xc)+E(xc)   XCENC  =       140.88202568
  PAW double counting   =      3508.58452570    -3514.91561956
  entropy T*S    EENTRO =        -0.00000000
  eigenvalues    EBANDS =      -514.26768854
  atomic energy  EATOM  =      1406.67326350
  Solvation  Ediel_sol  =         0.00000000
  ---------------------------------------------------
  free energy    TOTEN  =      -103.36301357 eV

  energy without entropy =     -103.36301357  energy(sigma->0) =     -103.36301357


--------------------------------------------------------------------------------------------------------




--------------------------------------- Iteration      1(  24)  ---------------------------------------


    POTLOK:  cpu time      0.7994: real time      0.8080
    SETDIJ:  cpu time      0.0117: real time      0.0117
    EDDIAG:  cpu time      0.1606: real time      0.1606
  RMM-DIIS:  cpu time      0.5772: real time      0.5773
    ORTHCH:  cpu time      0.0073: real time      0.0073
       DOS:  cpu time      0.0001: real time      0.0001
    CHARGE:  cpu time      0.1016: real time      0.1016
    MIXING:  cpu time      0.0803: real time      0.0803
    --------------------------------------------
      LOOP:  cpu time      1.7382: real time      1.7468

 eigenvalue-minimisations  :    30
 total energy-change (2. order) :-0.1027080E-04  (-0.6623531E-07)
 number of electron      41.9999985 magnetization 
 augmentation part        1.0435690 magnetization 

 Broyden mixing:
  rms(total) = 0.65558E-04    rms(broyden)= 0.65547E-04
  rms(prec ) = 0.83263E-04
  weight for this iteration     100.00

 eigenvalues of (default mixing * dielectric matrix)
  average eigenvalue GAMMA=   2.2430
  9.2346  6.3650  4.5194  2.8541  2.3690  2.0821  2.0821  1.3059  1.3059  1.3167
  1.3167  1.3638  1.0404  1.0404  0.9577  0.9101  0.9101  0.7969  0.8464

 Free energy of the ion-electron system (eV)
  ---------------------------------------------------
  alpha Z        PSCENC =         2.15216506
  Ewald energy   TEWEN  =      2576.68034502
  -Hartree energ DENC   =     -3709.15453068
[...]
 d Force =-0.2800371E-01[-0.279E-01,-0.281E-01]  d Ewald  =-0.2800372E-01 0.458E-08


--------------------------------------------------------------------------------------------------------


    POTLOK:  cpu time      1.3342: real time      1.6329


--------------------------------------------------------------------------------------------------------


 NEB: the previous image is higher in energy: T
 NEB: the next image is higher in energy    : F
 NEB: only prev energy greater

 NEB: Tangent
 ----------------------------------------------
     -0.01235      0.01821     -0.02490
      0.01963      0.01480      0.02811
      0.01768      0.02526      0.05054
     -0.05337     -0.05756     -0.02427
      0.17697      0.02177      0.22018
      0.06840     -0.01245      0.10394
      0.03081      0.04073      0.06887
     -0.03311      0.04654     -0.03472
     -0.18317     -0.30895      0.03477
     -0.14253      0.01751     -0.23110
      0.02607      0.01563      0.05651
     -0.01439      0.08137      0.08120
     -0.00367      0.01496     -0.00246
      0.52256     -0.01538      0.17950
      0.12305      0.14424      0.53018
      0.06451     -0.12081      0.08255
      0.00372      0.08244      0.05047

 NEB: forces: par spring, perp REAL, dneb     0.015956    0.030211    0.000000
 NEB: distance to prev, next image, angle between     1.313810    1.317002  151.227328
 NEB: projections on to tangent (spring, REAL)     0.015956    0.036977

 stress matrix after NEB project (eV)
     -1.93706      0.02806     -0.00585
      0.02806     -1.86977      0.00524
     -0.00585      0.00524     -1.97665
  FORCES: max atom, RMS     0.014949    0.008286
  FORCE total and by dimension    0.034166    0.012808
  Stress total and by dimension    3.340219    1.976645
 Quasi-Newton relaxation of ions (Broydens 2nd method)
  g(Force)  = 0.418E-03   g(Stress)= 0.000E+00

 retain information from N=  1 steps
 eigenvalues of (default step * inverse Hessian matrix)
  average eigenvalue of G=   1.6672
 eigenvalue spectrum of G is  1.6672


--------------------------------------------------------------------------------------------------------


    WAVPRE:  cpu time      1.3763: real time      2.3097
    FEWALD:  cpu time      0.0003: real time      0.0003
    ORTHCH:  cpu time      0.0940: real time      0.1733
     LOOP+:  cpu time     17.1151: real time     21.3744


--------------------------------------- Iteration    108(   1)  ---------------------------------------


    POTLOK:  cpu time      1.1991: real time      1.9353
    SETDIJ:  cpu time      0.0054: real time      0.0186
     EDDAV:  cpu time      1.2367: real time      1.7374
       DOS:  cpu time      0.0001: real time      0.0001
    CHARGE:  cpu time      0.1276: real time      0.1321
    MIXING:  cpu time      0.0196: real time      0.0203
    --------------------------------------------
      LOOP:  cpu time      2.5886: real time      3.8439

 eigenvalue-minimisations  :    66
 total energy-change (2. order) :-0.4011932E-04  (-0.7317516E-04)
 number of electron      41.9999979 magnetization 
 augmentation part        1.0321013 magnetization 

 Broyden mixing:
  rms(total) = 0.44443E-03    rms(broyden)= 0.44130E-03
  rms(prec ) = 0.46954E-03
  weight for this iteration     100.00

 Free energy of the ion-electron system (eV)
  ---------------------------------------------------
  alpha Z        PSCENC =         2.15216506
  Ewald energy   TEWEN  =      2547.39808572
  -Hartree energ DENC   =     -3681.38554729
  -exchange      EXHF   =         0.00000000
  -V(xc)+E(xc)   XCENC  =       140.45801803
  PAW double counting   =      3436.71589745    -3443.01319260
  entropy T*S    EENTRO =        -0.00000000
  eigenvalues    EBANDS =      -512.38922527
  atomic energy  EATOM  =      1406.67326350
  Solvation  Ediel_sol  =         0.00000000
  ---------------------------------------------------
  free energy    TOTEN  =      -103.39053539 eV

  energy without entropy =     -103.39053539  energy(sigma->0) =     -103.39053539


--------------------------------------------------------------------------------------------------------




--------------------------------------- Iteration    108(   2)  ---------------------------------------


    POTLOK:  cpu time      0.8778: real time      0.9099
    SETDIJ:  cpu time      0.0032: real time      0.0057
    EDDIAG:  cpu time      0.1848: real time      0.1982
  RMM-DIIS:  cpu time      0.8218: real time      0.8656
    ORTHCH:  cpu time      0.0075: real time      0.0075
       DOS:  cpu time      0.0001: real time      0.0001
    --------------------------------------------
      LOOP:  cpu time      1.8952: real time      1.9870

 eigenvalue-minimisations  :    38
 total energy-change (2. order) :-0.8297343E-06  (-0.8488761E-06)
 number of electron      41.9999979 magnetization 
 augmentation part        1.0321013 magnetization 

 Free energy of the ion-electron system (eV)
  ---------------------------------------------------
  alpha Z        PSCENC =         2.15216506
  Ewald energy   TEWEN  =      2547.39808572
  -Hartree energ DENC   =     -3681.38382778
  -exchange      EXHF   =         0.00000000
  -V(xc)+E(xc)   XCENC  =       140.45791970
  PAW double counting   =      3436.67696961    -3442.97422721
  entropy T*S    EENTRO =        -0.00000000
  eigenvalues    EBANDS =      -512.39088481
  atomic energy  EATOM  =      1406.67326350
  Solvation  Ediel_sol  =         0.00000000
  ---------------------------------------------------
  free energy    TOTEN  =      -103.39053622 eV

  energy without entropy =     -103.39053622  energy(sigma->0) =     -103.39053622


--------------------------------------------------------------------------------------------------------




 average (electrostatic) potential at core
  the test charge radii are     0.6991  0.5201  0.7089
  (the norm of the test charge is              1.0000)
       1 -58.7580       2 -58.7274       3 -59.0370       4 -58.8596       5 -58.9808
       6 -59.8231       7 -59.6439       8 -42.0388       9 -41.9557      10 -41.9375
      11 -42.0539      12 -42.0672      13 -42.0576      14 -41.9793      15 -41.9489
      16 -42.4578      17 -72.9021
 
 
 
 E-fermi :  -5.8862     XC(G=0):  -0.6166     alpha+bet : -0.2838

 Fermi energy:        -5.8861732320

 k-point     1 :       0.0000    0.0000    0.0000
  band No.  band energies     occupation 
      1     -22.2604      2.00000
      2     -21.1394      2.00000
      3     -19.1096      2.00000
      4     -18.6636      2.00000
      5     -15.9766      2.00000
      6     -15.4299      2.00000
      7     -12.9922      2.00000
      8     -12.8300      2.00000
      9     -12.2013      2.00000
     10     -10.8239      2.00000
     11     -10.5351      2.00000
     12     -10.3313      2.00000
     13      -9.8508      2.00000
     14      -9.5408      2.00000
     15      -8.7357      2.00000
     16      -8.4861      2.00000
     17      -8.2558      2.00000
     18      -7.8293      2.00000
     19      -7.5849      2.00000
     20      -7.4785      2.00000
     21      -6.1401      2.00000
     22      -0.9901      0.00000
     23      -0.6937      0.00000
     24      -0.1882      0.00000
     25      -0.1323      0.00000
     26      -0.0191      0.00000
     27       0.0838      0.00000
     28       0.1803      0.00000
     29       0.3730      0.00000
     30       0.4671      0.00000


--------------------------------------------------------------------------------------------------------


 soft charge-density along one line, spin component           1
         0         1         2         3         4         5         6         7         8         9
 total charge-density along one line
 
 pseudopotential strength for first ion, spin component:           1
 10.251  13.633  -0.000  -0.000   0.001  -0.001   0.000  -0.002
 13.633  18.130  -0.000  -0.000   0.001  -0.001   0.000  -0.003
 -0.000  -0.000  -4.381  -0.000  -0.001   8.569   0.000   0.001
 -0.000  -0.000  -0.000  -4.373   0.001   0.000   8.559  -0.001
  0.001   0.001  -0.001   0.001  -4.377   0.001  -0.001   8.563
 -0.001  -0.001   8.569   0.000   0.001 -18.900   0.000  -0.001
  0.000   0.000   0.000   8.559  -0.001   0.000 -18.891  -0.000
 -0.002  -0.003   0.001  -0.001   8.563  -0.001  -0.000 -18.893
 total augmentation occupancy for first ion, spin component:           1
  7.795  -3.377   0.389   0.043   0.046   0.063   0.006   0.015
 -3.377   1.509  -0.223  -0.023  -0.046  -0.034  -0.003  -0.011
  0.389  -0.223   1.902   0.052   0.021   0.178   0.008   0.000
  0.043  -0.023   0.052   1.192  -0.090   0.008   0.074  -0.014
  0.046  -0.046   0.021  -0.090   1.650   0.000  -0.014   0.146
  0.063  -0.034   0.178   0.008   0.000   0.018   0.001  -0.000
  0.006  -0.003   0.008   0.074  -0.014   0.001   0.005  -0.002
  0.015  -0.011   0.000  -0.014   0.146  -0.000  -0.002   0.014


------------------------ aborting loop because EDIFF is reached ----------------------------------------


    CHARGE:  cpu time      0.2279: real time      0.2880
    FORLOC:  cpu time      0.1305: real time      0.3496
    FORNL :  cpu time      0.2409: real time      0.4969
    STRESS:  cpu time      1.0607: real time      2.0768
    FORCOR:  cpu time      1.2498: real time      1.6215
    FORHAR:  cpu time      0.4219: real time      0.6630
    MIXING:  cpu time      0.0297: real time      0.0298
    OFIELD:  cpu time      0.0001: real time      0.0001

 ---------------------------------------------------------------------------------------------

         DFTD3 V3.0 Rev 1        
 Edisp (eV)   -0.19618

 E6    (eV) :    -0.0832
 E8    (eV) :    -0.1129
 % E8        : 57.57
    FORVDW:  cpu time      0.0060: real time      0.0060

  FORCE on cell =-STRESS in cart. coord.  units (eV):
  Direction    XX          YY          ZZ          XY          YZ          ZX
  --------------------------------------------------------------------------------------
  Alpha Z     2.15217     2.15217     2.15217
  Ewald    1265.20071  1184.13686    98.05935   397.73997  -140.35858  -622.55230
  Hartree  1506.09047  1465.44934   709.83977   274.59961  -115.36295  -471.94049
  E(xc)    -152.52400  -152.97811  -154.44726     0.60107    -0.07987    -0.51125
  Local   -3164.06821 -3054.01546 -1235.32416  -659.08330   254.95501  1091.12313
  n-local   -62.71991   -60.95122   -59.84600    -1.60124     0.08618    -0.43760
  augment    -0.62467    -0.64295    -0.58950     0.00521    -0.01819    -0.03571
  Kinetic   604.56956   615.00741   638.17298   -12.22351     0.78157     4.33919
  Fock        0.00000     0.00000     0.00000     0.00000     0.00000     0.00000
  vdW        -0.01245    -0.02814     0.00817    -0.01422     0.00296     0.01352
  -------------------------------------------------------------------------------------
  Total      -1.93632    -1.87010    -1.97449     0.02359     0.00612    -0.00151
  in kB      -0.84906    -0.82002    -0.86579     0.01034     0.00268    -0.00066
  external pressure =       -0.84 kB  Pullay stress =        0.00 kB


 VOLUME and BASIS-vectors are now :
 -----------------------------------------------------------------------------
  energy-cutoff  :      400.00
  volume of cell :     3653.87
      direct lattice vectors                 reciprocal lattice vectors
    15.402250290  0.000000000  0.000000000     0.064925578  0.000000000  0.000000000
     0.000000000 15.402250290  0.000000000     0.000000000  0.064925578  0.000000000
     0.000000000  0.000000000 15.402250290     0.000000000  0.000000000  0.064925578

  length of vectors
    15.402250290 15.402250290 15.402250290     0.064925578  0.064925578  0.064925578


 FORCES acting on ions
    electron-ion (+dipol)            ewald-force                    non-local-force                 convergence-correction
 -----------------------------------------------------------------------------------------------
   0.157E+03 0.115E+03 -.431E+02   -.158E+03 -.116E+03 0.432E+02   0.798E+00 0.234E+00 -.362E-01   0.525E-04 0.105E-03 -.897E-03
   0.162E+03 -.933E+02 -.727E+02   -.163E+03 0.934E+02 0.732E+02   0.995E+00 -.123E+00 -.543E+00   -.138E-03 0.290E-04 -.134E-02
   0.144E+02 -.149E+03 -.881E+02   -.147E+02 0.150E+03 0.890E+02   0.357E+00 -.984E+00 -.918E+00   0.407E-03 -.751E-03 0.431E-03
   -.344E+01 0.174E+03 -.403E+02   0.352E+01 -.174E+03 0.401E+02   -.880E-01 0.493E+00 0.158E+00   0.100E-02 0.868E-03 0.106E-02
   -.100E+03 0.116E+03 0.602E+02   0.100E+03 -.118E+03 -.601E+02   -.424E+00 0.112E+01 -.140E+00   -.140E-03 0.461E-03 0.101E-03
   0.122E+01 -.413E+02 0.928E+02   -.513E+01 0.388E+02 -.918E+02   0.392E+01 0.249E+01 -.106E+01   0.146E-03 -.389E-03 0.625E-03
   -.157E+02 -.287E+02 0.431E+02   0.131E+02 0.272E+02 -.425E+02   0.262E+01 0.158E+01 -.565E+00   0.145E-02 -.897E-03 0.213E-02
   0.707E+02 0.434E+02 -.135E+02   -.756E+02 -.463E+02 0.142E+02   0.482E+01 0.294E+01 -.744E+00   -.427E-04 -.177E-04 -.243E-03
   -.285E+02 0.405E+02 -.686E+02   0.308E+02 -.417E+02 0.734E+02   -.223E+01 0.112E+01 -.479E+01   0.938E-04 0.331E-03 0.141E-04
   0.142E+02 0.809E+02 0.218E+02   -.153E+02 -.859E+02 -.240E+02   0.109E+01 0.496E+01 0.220E+01   0.206E-03 -.935E-04 0.227E-03
   0.718E+02 -.390E+02 -.210E+02   -.767E+02 0.418E+02 0.222E+02   0.484E+01 -.278E+01 -.117E+01   -.117E-03 -.166E-04 -.332E-03
   -.370E+02 -.207E+02 -.739E+02   0.402E+02 0.205E+02 0.783E+02   -.321E+01 0.186E+00 -.439E+01   -.291E-04 -.223E-03 0.500E-05
   0.193E+02 -.839E+02 -.187E+01   -.203E+02 0.894E+02 0.100E+01   0.101E+01 -.543E+01 0.859E+00   0.345E-04 -.232E-04 0.194E-03
   -.163E+02 0.469E+02 0.712E+02   0.167E+02 -.492E+02 -.763E+02   -.385E+00 0.239E+01 0.502E+01   -.848E-04 0.949E-04 0.202E-04
   -.763E+02 0.287E+02 -.233E+02   0.814E+02 -.293E+02 0.255E+02   -.509E+01 0.555E+00 -.226E+01   -.870E-06 0.871E-04 -.576E-04
   0.431E+02 -.157E+02 0.765E+02   -.465E+02 0.163E+02 -.809E+02   0.342E+01 -.552E+00 0.436E+01   0.109E-04 -.118E-04 0.107E-03
   -.254E+03 -.162E+03 0.771E+02   0.288E+03 0.182E+03 -.847E+02   -.340E+02 -.202E+02 0.751E+01   0.423E-03 -.354E-02 0.430E-02
 -----------------------------------------------------------------------------------------------
   0.215E+02 0.120E+02 -.350E+01   0.000E+00 0.000E+00 0.114E-12   -.215E+02 -.120E+02 0.349E+01   0.327E-02 -.399E-02 0.636E-02
 
 
 POSITION                                       TOTAL-FORCE (eV/Angst)
 -----------------------------------------------------------------------------------
      5.14364      6.79791      8.67473         0.000268      0.001008      0.001420
      5.13847      8.13249      8.78594         0.002350      0.001216      0.003497
      6.40427      8.91108      8.56336         0.000664      0.001988     -0.001869
      6.41569      6.04103      8.41544        -0.003720     -0.003037     -0.004930
      7.46006      6.79350      7.54490         0.004068     -0.000325      0.005182
      7.14844      8.30129      7.34761         0.000117     -0.001983      0.000721
      8.37061      9.03989      7.04343         0.005152      0.005008     -0.004223
      4.22341      6.22549      8.81711        -0.000178      0.002876      0.006133
      6.87598      5.81783      9.39548        -0.007029     -0.018773     -0.005927
      6.19538      5.05935      7.97102        -0.010937      0.002534     -0.016390
      4.21653      8.67425      9.00926         0.003816      0.000606      0.009858
      7.06475      8.86139      9.44827         0.001474      0.010073     -0.002297
      6.20045      9.97589      8.38353        -0.003037      0.000631     -0.007935
      7.52648      6.32811      6.55106         0.016512     -0.001010      0.004904
      8.45581      6.69327      7.99957         0.001088      0.003734      0.015947
      6.47646      8.41500      6.47946         0.000124     -0.006208      0.000112
      9.35700      9.62639      6.82529        -0.010732      0.001662     -0.004202
 -----------------------------------------------------------------------------------
    total drift:                               -0.001051      0.004550      0.002125


--------------------------------------------------------------------------------------------------------



  FREE ENERGIE OF THE ION-ELECTRON SYSTEM (eV)
  ---------------------------------------------------
  free  energy   TOTEN  =      -103.58671840 eV

  energy  without entropy=     -103.58671840  energy(sigma->0) =     -103.58671840
 
 d Force = 0.3531022E-04[ 0.338E-04, 0.368E-04]  d Energy = 0.3604493E-04-0.735E-06
 d Force = 0.2849220E-01[ 0.285E-01, 0.285E-01]  d Ewald  = 0.2849220E-01-0.142E-09


--------------------------------------------------------------------------------------------------------


    POTLOK:  cpu time      0.7261: real time      1.0892


--------------------------------------------------------------------------------------------------------


 NEB: the previous image is higher in energy: T
 NEB: the next image is higher in energy    : F
 NEB: only prev energy greater

 NEB: Tangent
 ----------------------------------------------
     -0.01236      0.01821     -0.02491
      0.01965      0.01480      0.02813
      0.01773      0.02524      0.05057
     -0.05338     -0.05755     -0.02430
      0.17695      0.02177      0.22019
      0.06838     -0.01246      0.10394
      0.03070      0.04071      0.06873
     -0.03314      0.04655     -0.03485
     -0.18322     -0.30893      0.03469
     -0.14252      0.01758     -0.23112
      0.02609      0.01564      0.05648
     -0.01433      0.08129      0.08120
     -0.00359      0.01494     -0.00238
      0.52257     -0.01539      0.17955
      0.12300      0.14425      0.53021
      0.06442     -0.12084      0.08260
      0.00361      0.08249      0.05013

 NEB: forces: par spring, perp REAL, dneb     0.015850    0.029157    0.000000
 NEB: distance to prev, next image, angle between     1.313808    1.316978  151.202180
 NEB: projections on to tangent (spring, REAL)     0.015850    0.035459

 stress matrix after NEB project (eV)
     -1.93632      0.02359     -0.00151
      0.02359     -1.87010      0.00612
     -0.00151      0.00612     -1.97449
  FORCES: max atom, RMS     0.014736    0.008049
  FORCE total and by dimension    0.033187    0.012715
  Stress total and by dimension    3.338626    1.974486
 Quasi-Newton relaxation of ions (Broydens 2nd method)
  g(Force)  = 0.386E-03   g(Stress)= 0.000E+00

 retain information from N=  2 steps
 eigenvalues of (default step * inverse Hessian matrix)
  average eigenvalue of G=   4.3533
 eigenvalue spectrum of G is  4.3533  4.3533


--------------------------------------------------------------------------------------------------------


  
 reached required accuracy - stopping structural energy minimisation
     LOOP+:  cpu time     13.7359: real time     18.6210
    4ORBIT:  cpu time      0.0000: real time      0.0000

 total amount of memory used by VASP MPI-rank0   277942. kBytes
=======================================================================

   base      :      30000. kBytes
   nonl-proj :      15437. kBytes
   fftplans  :      71598. kBytes
   grid      :     152883. kBytes
   one-center:         26. kBytes
   wavefun   :       7998. kBytes
 
  
  
 General timing and accounting informations for this job:
 ========================================================
  
                  Total CPU time used (sec):     2199.308
                            User time (sec):     2064.261
                          System time (sec):      135.047
                         Elapsed time (sec):     3151.806
  
                   Maximum memory used (kb):     1153880.
                   Average memory used (kb):          N/A
  
                          Minor page faults:     12549365
                          Major page faults:          216
                 Voluntary context switches:         1487
