<?xml version="1.0" encoding="ISO-8859-1"?>
<modeling>
 <generator>
  <i name="program" type="string">vasp </i>
  <i name="version" type="string">6.3.2  </i>
  <i name="subversion" type="string">27Jun22 (build Oct 05 2023 17:59:42) gamma-only                       parallel </i>
  <i name="platform" type="string">LinuxIFC </i>
  <i name="date" type="string">2024 04 05 </i>
  <i name="time" type="string">18:28:44 </i>
 </generator>
 <incar>
  <i type="string" name="PREC">NORMAL</i>
  <i type="string" name="ALGO">Fast</i>
  <i type="int" name="ISPIN">     1</i>
  <i type="int" name="IBRION">     1</i>
  <i name="EDIFF">      0.00001000</i>
  <i name="EDIFFG">     -0.05000000</i>
  <i type="int" name="NSW">  5000</i>
  <i name="ENCUT">    400.00000000</i>
  <i name="POTIM">      0.10000000</i>
  <i type="int" name="ISMEAR">     0</i>
  <i name="SIGMA">      0.05000000</i>
  <i type="logical" name="LWAVE"> F  </i>
  <i type="logical" name="LCHARG"> F  </i>
  <i type="string" name="GGA">PE</i>
  <i type="int" name="IVDW">    11</i>
  <i name="SPRING">     -5.00000000</i>
 </incar>
 <primitive_cell>
  <structure name="primitive_cell" >
   <crystal>
    <varray name="basis" >
     <v>      15.40225029       0.00000000       0.00000000 </v>
     <v>       0.00000000      15.40225029       0.00000000 </v>
     <v>       0.00000000       0.00000000      15.40225029 </v>
    </varray>
    <i name="volume">   3653.86527022 </i>
    <varray name="rec_basis" >
     <v>       0.06492558       0.00000000       0.00000000 </v>
     <v>       0.00000000       0.06492558       0.00000000 </v>
     <v>       0.00000000       0.00000000       0.06492558 </v>
    </varray>
   </crystal>
   <varray name="positions" >
    <v>       0.33401592       0.44176759       0.56239013 </v>
    <v>       0.33378516       0.52835693       0.56994779 </v>
    <v>       0.41574930       0.57813269       0.55709845 </v>
    <v>       0.41586460       0.39278083       0.54635096 </v>
    <v>       0.48655213       0.44268725       0.49534590 </v>
    <v>       0.46565184       0.53857882       0.47983205 </v>
    <v>       0.54403160       0.58688736       0.46036991 </v>
    <v>       0.27501820       0.40399053       0.57191139 </v>
    <v>       0.44585683       0.37347650       0.60817202 </v>
    <v>       0.40065557       0.33145411       0.51398157 </v>
    <v>       0.27390224       0.56320301       0.58378944 </v>
    <v>       0.45941571       0.57418329       0.61307147 </v>
    <v>       0.40295461       0.64717351       0.54614003 </v>
    <v>       0.49893181       0.41196962       0.43247822 </v>
    <v>       0.54757044       0.43825613       0.53093541 </v>
    <v>       0.42287110       0.54317853       0.42313868 </v>
    <v>       0.60815026       0.62460229       0.44628022 </v>
   </varray>
  </structure>
  <varray name="primitive_index" >
   <v type="int" >        1 </v>
   <v type="int" >        2 </v>
   <v type="int" >        3 </v>
   <v type="int" >        4 </v>
   <v type="int" >        5 </v>
   <v type="int" >        6 </v>
   <v type="int" >        7 </v>
   <v type="int" >        8 </v>
   <v type="int" >        9 </v>
   <v type="int" >       10 </v>
   <v type="int" >       11 </v>
   <v type="int" >       12 </v>
   <v type="int" >       13 </v>
   <v type="int" >       14 </v>
   <v type="int" >       15 </v>
   <v type="int" >       16 </v>
   <v type="int" >       17 </v>
  </varray>
 </primitive_cell>
 <kpoints>
  <generation param="Monkhorst-Pack">
   <v type="int" name="divisions">       1        1        1 </v>
   <v name="usershift">      0.00000000       0.00000000       0.00000000 </v>
   <v name="genvec1">      1.00000000       0.00000000       0.00000000 </v>
   <v name="genvec2">      0.00000000       1.00000000       0.00000000 </v>
   <v name="genvec3">      0.00000000       0.00000000       1.00000000 </v>
   <v name="shift">      0.00000000       0.00000000       0.00000000 </v>
  </generation>
  <varray name="kpointlist" >
   <v>       0.00000000       0.00000000       0.00000000 </v>
  </varray>
  <varray name="weights" >
   <v>       1.00000000 </v>
  </varray>
 </kpoints>
 <parameters>
  <separator name="general" >
   <i type="string" name="SYSTEM">unknown system</i>
   <i type="logical" name="LCOMPAT"> F  </i>
  </separator>
  <separator name="electronic" >
   <i type="string" name="PREC">normal</i>
   <i name="ENMAX">    400.00000000</i>
   <i name="ENAUG">    644.87300000</i>
   <i name="EDIFF">      0.00001000</i>
   <i type="int" name="IALGO">    68</i>
   <i type="int" name="IWAVPR">    11</i>
   <i type="int" name="NBANDS">    30</i>
   <i type="int" name="NBANDSLOW">    -1</i>
   <i type="int" name="NBANDSHIGH">    -1</i>
   <i name="NELECT">     42.00000000</i>
   <i type="int" name="TURBO">     0</i>
   <i type="int" name="IRESTART">     0</i>
   <i type="int" name="NREBOOT">     0</i>
   <i type="int" name="NMIN">     0</i>
   <i name="EREF">      0.00000000</i>
   <separator name="electronic smearing" >
    <i type="int" name="ISMEAR">     0</i>
    <i name="SIGMA">      0.05000000</i>
    <i name="KSPACING">      0.50000000</i>
    <i type="logical" name="KGAMMA"> T  </i>
    <i type="logical" name="KBLOWUP"> T  </i>
   </separator>
   <separator name="electronic projectors" >
    <i type="logical" name="LREAL"> F  </i>
    <v name="ROPT">      0.00000000      0.00000000      0.00000000</v>
    <i type="int" name="LMAXPAW">  -100</i>
    <i type="int" name="LMAXMIX">     2</i>
    <i type="logical" name="NLSPLINE"> F  </i>
   </separator>
   <separator name="electronic startup" >
    <i type="int" name="ISTART">     0</i>
    <i type="int" name="ICHARG">     2</i>
    <i type="int" name="INIWAV">     1</i>
   </separator>
   <separator name="electronic spin" >
    <i type="int" name="ISPIN">     1</i>
    <i type="logical" name="LNONCOLLINEAR"> F  </i>
    <v name="MAGMOM">      1.00000000      1.00000000      1.00000000      1.00000000      1.00000000      1.00000000      1.00000000      1.00000000      1.00000000      1.00000000      1.00000000      1.00000000      1.00000000      1.00000000      1.00000000      1.00000000      1.00000000</v>
    <i name="NUPDOWN">     -1.00000000</i>
    <i type="logical" name="LSORBIT"> F  </i>
    <v name="SAXIS">      0.00000000      0.00000000      1.00000000</v>
    <i type="logical" name="LSPIRAL"> F  </i>
    <v name="QSPIRAL">      0.00000000      0.00000000      0.00000000</v>
    <i type="logical" name="LZEROZ"> F  </i>
   </separator>
   <separator name="electronic exchange-correlation" >
    <i type="logical" name="LASPH"> F  </i>
    <i type="logical" name="LMETAGGA"> F  </i>
   </separator>
   <separator name="electronic convergence" >
    <i type="int" name="NELM">    60</i>
    <i type="int" name="NELMDL">    -5</i>
    <i type="int" name="NELMIN">     2</i>
    <i name="ENINI">    400.00000000</i>
    <separator name="electronic convergence detail" >
     <i type="logical" name="LDIAG"> T  </i>
     <i type="logical" name="LSUBROT"> F  </i>
     <i name="WEIMIN">      0.00100000</i>
     <i name="EBREAK">      0.00000008</i>
     <i name="DEPER">      0.30000000</i>
     <i type="int" name="NRMM">     4</i>
     <i name="TIME">      0.40000000</i>
    </separator>
   </separator>
   <separator name="electronic mixer" >
    <i name="AMIX">      0.40000000</i>
    <i name="BMIX">      1.00000000</i>
    <i name="AMIN">      0.10000000</i>
    <i name="AMIX_MAG">      1.60000000</i>
    <i name="BMIX_MAG">      1.00000000</i>
    <separator name="electronic mixer details" >
     <i type="int" name="IMIX">     4</i>
     <i type="logical" name="MIXFIRST"> F  </i>
     <i type="int" name="MAXMIX">   -45</i>
     <i name="WC">    100.00000000</i>
     <i type="int" name="INIMIX">     1</i>
     <i type="int" name="MIXPRE">     1</i>
     <i type="int" name="MREMOVE">     5</i>
    </separator>
   </separator>
   <separator name="electronic dipolcorrection" >
    <i type="logical" name="LDIPOL"> F  </i>
    <i type="logical" name="LMONO"> F  </i>
    <i type="int" name="IDIPOL">     0</i>
    <i name="EPSILON">      1.00000000</i>
    <v name="DIPOL">   -100.00000000   -100.00000000   -100.00000000</v>
    <i name="EFIELD">      0.00000000</i>
   </separator>
  </separator>
  <separator name="grids" >
   <i type="int" name="NGX">    80</i>
   <i type="int" name="NGY">    80</i>
   <i type="int" name="NGZ">    80</i>
   <i type="int" name="NGXF">   160</i>
   <i type="int" name="NGYF">   160</i>
   <i type="int" name="NGZF">   160</i>
   <i type="logical" name="ADDGRID"> F  </i>
  </separator>
  <separator name="ionic" >
   <i type="int" name="NSW">  5000</i>
   <i type="int" name="IBRION">     1</i>
   <i type="int" name="MDALGO">     0</i>
   <i type="int" name="ISIF">     2</i>
   <i name="PSTRESS">      0.00000000</i>
   <i name="EDIFFG">     -0.05000000</i>
   <i type="int" name="NFREE">     0</i>
   <i name="POTIM">      0.10000000</i>
   <i name="SMASS">     -3.00000000</i>
   <i name="SCALEE">      1.00000000</i>
  </separator>
  <separator name="ionic md" >
   <i name="TEBEG">      0.00010000</i>
   <i name="TEEND">      0.00010000</i>
   <i type="int" name="NBLOCK">     1</i>
   <i type="int" name="KBLOCK">  5000</i>
   <i type="int" name="NPACO">   256</i>
   <i name="APACO">     10.00000000</i>
  </separator>
  <separator name="symmetry" >
   <i type="int" name="ISYM">     2</i>
   <i name="SYMPREC">      0.00001000</i>
  </separator>
  <separator name="dos" >
   <i type="int" name="LORBIT">     0</i>
   <v name="RWIGS">     -1.00000000     -1.00000000     -1.00000000</v>
   <i type="int" name="NEDOS">   301</i>
   <i name="EMIN">     10.00000000</i>
   <i name="EMAX">    -10.00000000</i>
   <i name="EFERMI">      0.00000000</i>
  </separator>
  <separator name="writing" >
   <i type="int" name="NWRITE">     2</i>
   <i type="logical" name="LWAVE"> F  </i>
   <i type="logical" name="LDOWNSAMPLE"> F  </i>
   <i type="logical" name="LCHARG"> F  </i>
   <i type="logical" name="LPARD"> F  </i>
   <i type="logical" name="LVTOT"> F  </i>
   <i type="logical" name="LVHAR"> F  </i>
   <i type="logical" name="LELF"> F  </i>
   <i type="logical" name="LOPTICS"> F  </i>
   <v name="STM">      0.00000000      0.00000000      0.00000000      0.00000000      0.00000000      0.00000000      0.00000000</v>
  </separator>
  <separator name="performance" >
   <i type="int" name="NPAR">     2</i>
   <i type="int" name="NSIM">     4</i>
   <i type="int" name="NBLK">    -1</i>
   <i type="logical" name="LPLANE"> T  </i>
   <i type="logical" name="LSCALAPACK"> T  </i>
   <i type="logical" name="LSCAAWARE"> F  </i>
   <i type="logical" name="LSCALU"> F  </i>
   <i type="logical" name="LASYNC"> F  </i>
   <i type="logical" name="LORBITALREAL"> F  </i>
  </separator>
  <separator name="miscellaneous" >
   <i type="int" name="IDIOT">     3</i>
   <i type="int" name="PHON_NSTRUCT">    -1</i>
   <i type="logical" name="LMUSIC"> F  </i>
   <v name="POMASS">     12.01100000      1.00000000     14.00100000</v>
   <v name="DARWINR">      0.00000000      0.00000000      0.00000000</v>
   <v name="DARWINV">      1.00000000      1.00000000      1.00000000</v>
   <i type="logical" name="LCORR"> T  </i>
  </separator>
  <i type="logical" name="GGA_COMPAT"> T  </i>
  <i type="logical" name="LBERRY"> F  </i>
  <i type="int" name="ICORELEVEL">     0</i>
  <i type="logical" name="LDAU"> F  </i>
  <i type="int" name="I_CONSTRAINED_M">     0</i>
  <separator name="electronic exchange-correlation" >
   <i type="string" name="GGA">PE</i>
   <i type="int" name="VOSKOWN">     0</i>
   <i type="logical" name="LHFCALC"> F  </i>
   <i type="string" name="PRECFOCK"></i>
   <i type="logical" name="LSYMGRAD"> F  </i>
   <i type="logical" name="LHFONE"> F  </i>
   <i type="logical" name="LRHFCALC"> F  </i>
   <i type="logical" name="LTHOMAS"> F  </i>
   <i type="logical" name="LMODELHF"> F  </i>
   <i type="logical" name="LFOCKACE"> F  </i>
   <i name="ENCUT4O">     -1.00000000</i>
   <i type="int" name="EXXOEP">     0</i>
   <i type="int" name="FOURORBIT">     0</i>
   <i name="AEXX">      0.00000000</i>
   <i name="HFALPHA">      0.00000000</i>
   <i name="MCALPHA">      0.00000000</i>
   <i name="ALDAX">      1.00000000</i>
   <i name="AGGAX">      1.00000000</i>
   <i name="ALDAC">      1.00000000</i>
   <i name="AGGAC">      1.00000000</i>
   <i type="int" name="NKREDX">     1</i>
   <i type="int" name="NKREDY">     1</i>
   <i type="int" name="NKREDZ">     1</i>
   <i type="logical" name="SHIFTRED"> F  </i>
   <i type="logical" name="ODDONLY"> F  </i>
   <i type="logical" name="EVENONLY"> F  </i>
   <i type="int" name="LMAXFOCK">     0</i>
   <i type="int" name="NMAXFOCKAE">     0</i>
   <i type="logical" name="LFOCKAEDFT"> F  </i>
   <i name="HFSCREEN">      0.00000000</i>
   <i name="HFSCREENC">      0.00000000</i>
   <i type="int" name="NBANDSGWLOW">     0</i>
  </separator>
  <separator name="vdW DFT" >
   <i type="logical" name="LUSE_VDW"> F  </i>
   <i name="Zab_VDW">     -0.84910000</i>
   <i name="PARAM1">      0.12340000</i>
   <i name="PARAM2">      1.00000000</i>
   <i name="PARAM3">      0.00000000</i>
  </separator>
  <separator name="model GW" >
   <i type="int" name="MODEL_GW">     0</i>
   <i name="MODEL_EPS0">    128.95995071</i>
   <i name="MODEL_ALPHA">      1.00000000</i>
  </separator>
  <separator name="linear response parameters" >
   <i type="logical" name="LEPSILON"> F  </i>
   <i type="logical" name="LRPA"> F  </i>
   <i type="logical" name="LNABLA"> F  </i>
   <i type="logical" name="LVEL"> F  </i>
   <i name="CSHIFT">      0.10000000</i>
   <i name="OMEGAMAX">     -1.00000000</i>
   <i name="DEG_THRESHOLD">      0.00200000</i>
   <i name="RTIME">     -0.10000000</i>
   <i name="WPLASMAI">      0.00000000</i>
   <v name="DFIELD">      0.00000000      0.00000000      0.00000000</v>
   <v name="WPLASMA">      0.00000000      0.00000000      0.00000000      0.00000000      0.00000000      0.00000000      0.00000000      0.00000000      0.00000000</v>
  </separator>
  <separator name="orbital magnetization" >
   <i type="logical" name="NUCIND"> F  </i>
   <v name="MAGPOS">      0.00000000      0.00000000      0.00000000</v>
   <i type="logical" name="LNICSALL"> T  </i>
   <i type="logical" name="ORBITALMAG"> F  </i>
   <i type="logical" name="LMAGBLOCH"> F  </i>
   <i type="logical" name="LCHIMAG"> F  </i>
   <i type="logical" name="LGAUGE"> T  </i>
   <i type="int" name="MAGATOM">     0</i>
   <v name="MAGDIPOL">      0.00000000      0.00000000      0.00000000</v>
   <v name="AVECCONST">      0.00000000      0.00000000      0.00000000</v>
  </separator>
  <separator name="response functions" >
   <i type="logical" name="LFINITE_TEMPERATURE"> F  </i>
   <i type="logical" name="LADDER"> F  </i>
   <i type="logical" name="LRPAFORCE"> F  </i>
   <i type="logical" name="LFXC"> F  </i>
   <i type="logical" name="LHARTREE"> T  </i>
   <i type="int" name="IBSE">     0</i>
   <v type="int" name="KPOINT">    -1     0     0     0</v>
   <i type="logical" name="LTCTC"> F  </i>
   <i type="logical" name="LTCTE"> F  </i>
   <i type="logical" name="LTETE"> F  </i>
   <i type="logical" name="LTRIPLET"> F  </i>
   <i type="logical" name="LFXCEPS"> F  </i>
   <i type="logical" name="LFXHEG"> F  </i>
   <i type="int" name="NATURALO">     2</i>
   <i type="logical" name="LHOLEGF"> F  </i>
   <i type="logical" name="L2ORDER"> F  </i>
   <i type="logical" name="LDMP1"> F  </i>
   <i type="logical" name="LMP2LT"> F  </i>
   <i type="logical" name="LSMP2LT"> F  </i>
   <i type="logical" name="LGWLF"> F  </i>
   <i name="ENCUTGW">     -2.00000000</i>
   <i name="ENCUTGWSOFT">     -2.00000000</i>
   <i name="ENCUTLF">     -1.00000000</i>
   <i type="logical" name="LESF_SPLINES"> F  </i>
   <i type="int" name="LMAXMP2">    -1</i>
   <i name="SCISSOR">      0.00000000</i>
   <i type="int" name="NOMEGA">     0</i>
   <i type="int" name="NOMEGAR">     0</i>
   <i type="int" name="NBANDSGW">    -1</i>
   <i type="int" name="NBANDSO">    -1</i>
   <i type="int" name="NBANDSV">    -1</i>
   <i type="int" name="NELMGW">     1</i>
   <i type="int" name="NELMHF">     1</i>
   <i type="int" name="DIM">     3</i>
   <i type="int" name="IESPILON">     4</i>
   <i type="int" name="ANTIRES">     0</i>
   <i name="OMEGAMAX">    -30.00000000</i>
   <i name="OMEGAMIN">    -30.00000000</i>
   <i name="OMEGATL">   -200.00000000</i>
   <i type="int" name="OMEGAGRID">     0</i>
   <i name="CSHIFT">     -0.10000000</i>
   <i type="logical" name="LSELFENERGY"> F  </i>
   <i type="logical" name="LSPECTRAL"> F  </i>
   <i type="logical" name="LSPECTRALGW"> F  </i>
   <i type="logical" name="LSINGLES"> F  </i>
   <i type="logical" name="LFERMIGW"> F  </i>
   <i type="logical" name="ODDONLYGW"> F  </i>
   <i type="logical" name="EVENONLYGW"> F  </i>
   <i type="int" name="NKREDLFX">     1</i>
   <i type="int" name="NKREDLFY">     1</i>
   <i type="int" name="NKREDLFZ">     1</i>
   <i type="int" name="MAXMEM">  2800</i>
   <i type="int" name="TELESCOPE">     0</i>
   <i type="int" name="NTAUPAR">    -1</i>
   <i type="int" name="NOMEGAPAR">    -1</i>
   <i name="DAMP_NEWTON">      0.80000001</i>
   <i name="LAMBDA">      1.00000000</i>
  </separator>
  <separator name="External order field" >
   <i name="OFIELD_KAPPA">      0.00000000</i>
   <v name="OFIELD_K">      0.00000000      0.00000000      0.00000000</v>
   <i name="OFIELD_Q6_NEAR">      0.00000000</i>
   <i name="OFIELD_Q6_FAR">      0.00000000</i>
   <i name="OFIELD_A">      0.00000000</i>
  </separator>
  <separator name="optional k-points parameters" >
   <i type="int" name="KPOINTS_OPT_MODE">     1</i>
   <i type="logical" name="LKPOINTS_OPT"> F  </i>
  </separator>
 </parameters>
 <atominfo>
  <atoms>      17 </atoms>
  <types>       3 </types>
  <array name="atoms" >
   <dimension dim="1">ion</dimension>
   <field type="string">element</field>
   <field type="int">atomtype</field>
   <set>
    <rc><c>C </c><c>   1</c></rc>
    <rc><c>C </c><c>   1</c></rc>
    <rc><c>C </c><c>   1</c></rc>
    <rc><c>C </c><c>   1</c></rc>
    <rc><c>C </c><c>   1</c></rc>
    <rc><c>C </c><c>   1</c></rc>
    <rc><c>C </c><c>   1</c></rc>
    <rc><c>H </c><c>   2</c></rc>
    <rc><c>H </c><c>   2</c></rc>
    <rc><c>H </c><c>   2</c></rc>
    <rc><c>H </c><c>   2</c></rc>
    <rc><c>H </c><c>   2</c></rc>
    <rc><c>H </c><c>   2</c></rc>
    <rc><c>H </c><c>   2</c></rc>
    <rc><c>H </c><c>   2</c></rc>
    <rc><c>H </c><c>   2</c></rc>
    <rc><c>N </c><c>   3</c></rc>
   </set>
  </array>
  <array name="atomtypes" >
   <dimension dim="1">type</dimension>
   <field type="int">atomspertype</field>
   <field type="string">element</field>
   <field>mass</field>
   <field>valence</field>
   <field type="string">pseudopotential</field>
   <set>
    <rc><c>   7</c><c>C </c><c>     12.01100000</c><c>      4.00000000</c><c>  PAW_PBE C 08Apr2002                   </c></rc>
    <rc><c>   9</c><c>H </c><c>      1.00000000</c><c>      1.00000000</c><c>  PAW_PBE H 15Jun2001                   </c></rc>
    <rc><c>   1</c><c>N </c><c>     14.00100000</c><c>      5.00000000</c><c>  PAW_PBE N 08Apr2002                   </c></rc>
   </set>
  </array>
 </atominfo>
 <structure name="initialpos" >
  <crystal>
   <varray name="basis" >
    <v>      15.40225029       0.00000000       0.00000000 </v>
    <v>       0.00000000      15.40225029       0.00000000 </v>
    <v>       0.00000000       0.00000000      15.40225029 </v>
   </varray>
   <i name="volume">   3653.86527022 </i>
   <varray name="rec_basis" >
    <v>       0.06492558       0.00000000       0.00000000 </v>
    <v>       0.00000000       0.06492558       0.00000000 </v>
    <v>       0.00000000       0.00000000       0.06492558 </v>
   </varray>
  </crystal>
  <varray name="positions" >
   <v>       0.33401592       0.44176759       0.56239013 </v>
   <v>       0.33378516       0.52835693       0.56994779 </v>
   <v>       0.41574930       0.57813269       0.55709845 </v>
   <v>       0.41586460       0.39278083       0.54635096 </v>
   <v>       0.48655213       0.44268725       0.49534590 </v>
   <v>       0.46565184       0.53857882       0.47983205 </v>
   <v>       0.54403160       0.58688736       0.46036991 </v>
   <v>       0.27501820       0.40399053       0.57191139 </v>
   <v>       0.44585683       0.37347650       0.60817202 </v>
   <v>       0.40065557       0.33145411       0.51398157 </v>
   <v>       0.27390224       0.56320301       0.58378944 </v>
   <v>       0.45941571       0.57418329       0.61307147 </v>
   <v>       0.40295461       0.64717351       0.54614003 </v>
   <v>       0.49893181       0.41196962       0.43247822 </v>
   <v>       0.54757044       0.43825613       0.53093541 </v>
   <v>       0.42287110       0.54317853       0.42313868 </v>
   <v>       0.60815026       0.62460229       0.44628022 </v>
  </varray>
 </structure>
 <calculation>
  <scstep>
   <time name="dav">    3.65    3.66</time>
   <time name="total">    5.79    5.81</time>
   <energy>
    <i name="alphaZ">      2.15216506 </i>
    <i name="ewald">   2576.68034502 </i>
    <i name="hartreedc">  -3512.83969339 </i>
    <i name="XCdc">    131.48412870 </i>
    <i name="pawpsdc">    983.79330320 </i>
    <i name="pawaedc">   -989.05002801 </i>
    <i name="eentropy">     -0.03281806 </i>
    <i name="bandstr">   -258.57188259 </i>
    <i name="atom">   1406.67326350 </i>
    <i name="e_fr_energy">    340.28878344 </i>
    <i name="e_wo_entrp">    340.32160150 </i>
    <i name="e_0_energy">    340.30519247 </i>
   </energy>
  </scstep>
  <scstep>
   <time name="dav">    4.41    4.45</time>
   <time name="total">    4.41    4.45</time>
   <energy>
    <i name="e_fr_energy">     37.90786107 </i>
    <i name="e_wo_entrp">     37.90786107 </i>
    <i name="e_0_energy">     37.90786107 </i>
   </energy>
  </scstep>
  <scstep>
   <time name="dav">    2.03    2.03</time>
   <time name="total">    2.03    2.03</time>
   <energy>
    <i name="e_fr_energy">    -99.98124988 </i>
    <i name="e_wo_entrp">    -99.98124988 </i>
    <i name="e_0_energy">    -99.98124988 </i>
   </energy>
  </scstep>
  <scstep>
   <time name="dav">    1.74    1.74</time>
   <time name="total">    1.74    1.74</time>
   <energy>
    <i name="e_fr_energy">   -113.98518940 </i>
    <i name="e_wo_entrp">   -113.98518940 </i>
    <i name="e_0_energy">   -113.98518940 </i>
   </energy>
  </scstep>
  <scstep>
   <time name="dav">    1.79    1.79</time>
   <time name="total">    2.08    2.08</time>
   <energy>
    <i name="e_fr_energy">   -114.14534123 </i>
    <i name="e_wo_entrp">   -114.14534123 </i>
    <i name="e_0_energy">   -114.14534123 </i>
   </energy>
  </scstep>
  <scstep>
   <time name="diag">    0.56    0.56</time>
   <time name="diis">    3.04    3.04</time>
   <time name="orth">    0.03    0.04</time>
   <time name="total">    5.88    5.89</time>
   <energy>
    <i name="e_fr_energy">   -105.70508951 </i>
    <i name="e_wo_entrp">   -105.70508951 </i>
    <i name="e_0_energy">   -105.70508951 </i>
   </energy>
  </scstep>
  <scstep>
   <time name="diag">    0.62    0.62</time>
   <time name="diis">    2.92    2.92</time>
   <time name="orth">    0.03    0.03</time>
   <time name="total">    6.18    6.18</time>
   <energy>
    <i name="e_fr_energy">   -103.63124263 </i>
    <i name="e_wo_entrp">   -103.63124263 </i>
    <i name="e_0_energy">   -103.63124263 </i>
   </energy>
  </scstep>
  <scstep>
   <time name="diag">    0.63    0.63</time>
   <time name="diis">    3.12    3.20</time>
   <time name="orth">    0.02    0.02</time>
   <time name="total">    6.58    6.66</time>
   <energy>
    <i name="e_fr_energy">   -103.44203057 </i>
    <i name="e_wo_entrp">   -103.44203057 </i>
    <i name="e_0_energy">   -103.44203057 </i>
   </energy>
  </scstep>
  <scstep>
   <time name="diag">    0.61    0.61</time>
   <time name="diis">    2.97    2.97</time>
   <time name="orth">    0.02    0.02</time>
   <time name="total">    6.33    6.33</time>
   <energy>
    <i name="e_fr_energy">   -103.33550585 </i>
    <i name="e_wo_entrp">   -103.33550585 </i>
    <i name="e_0_energy">   -103.33550585 </i>
   </energy>
  </scstep>
  <scstep>
   <time name="diag">    0.66    0.66</time>
   <time name="diis">    3.45    3.45</time>
   <time name="orth">    0.03    0.04</time>
   <time name="total">    6.99    7.00</time>
   <energy>
    <i name="e_fr_energy">   -103.32931358 </i>
    <i name="e_wo_entrp">   -103.32931358 </i>
    <i name="e_0_energy">   -103.32931358 </i>
   </energy>
  </scstep>
  <scstep>
   <time name="diag">    0.63    0.63</time>
   <time name="diis">    3.17    3.17</time>
   <time name="orth">    0.02    0.02</time>
   <time name="total">    6.52    6.52</time>
   <energy>
    <i name="e_fr_energy">   -103.34105758 </i>
    <i name="e_wo_entrp">   -103.34105758 </i>
    <i name="e_0_energy">   -103.34105758 </i>
   </energy>
  </scstep>
  <scstep>
   <time name="diag">    0.63    0.63</time>
   <time name="diis">    3.36    3.36</time>
   <time name="orth">    0.02    0.03</time>
   <time name="total">    6.74    6.75</time>
   <energy>
    <i name="e_fr_energy">   -103.33461965 </i>
    <i name="e_wo_entrp">   -103.33461965 </i>
    <i name="e_0_energy">   -103.33461965 </i>
   </energy>
  </scstep>
  <scstep>
   <time name="diag">    0.59    0.59</time>
   <time name="diis">    3.16    3.16</time>
   <time name="orth">    0.03    0.03</time>
   <time name="total">    6.48    6.49</time>
   <energy>
    <i name="e_fr_energy">   -103.33982802 </i>
    <i name="e_wo_entrp">   -103.33982802 </i>
    <i name="e_0_energy">   -103.33982802 </i>
   </energy>
  </scstep>
  <scstep>
   <time name="diag">    0.67    0.67</time>
   <time name="diis">    3.39    3.39</time>
   <time name="orth">    0.03    0.03</time>
   <time name="total">    6.70    6.71</time>
   <energy>
    <i name="e_fr_energy">   -103.34313688 </i>
    <i name="e_wo_entrp">   -103.34313688 </i>
    <i name="e_0_energy">   -103.34313688 </i>
   </energy>
  </scstep>
  <scstep>
   <time name="diag">    0.65    0.65</time>
   <time name="diis">    3.13    3.13</time>
   <time name="orth">    0.03    0.04</time>
   <time name="total">    6.61    6.62</time>
   <energy>
    <i name="e_fr_energy">   -103.35388430 </i>
    <i name="e_wo_entrp">   -103.35388430 </i>
    <i name="e_0_energy">   -103.35388430 </i>
   </energy>
  </scstep>
  <scstep>
   <time name="diag">    0.61    0.61</time>
   <time name="diis">    3.04    3.04</time>
   <time name="orth">    0.03    0.03</time>
   <time name="total">    6.53    6.53</time>
   <energy>
    <i name="e_fr_energy">   -103.35744605 </i>
    <i name="e_wo_entrp">   -103.35744605 </i>
    <i name="e_0_energy">   -103.35744605 </i>
   </energy>
  </scstep>
  <scstep>
   <time name="diag">    0.61    0.62</time>
   <time name="diis">    2.48    2.51</time>
   <time name="orth">    0.01    0.01</time>
   <time name="total">    5.58    5.61</time>
   <energy>
    <i name="e_fr_energy">   -103.36149595 </i>
    <i name="e_wo_entrp">   -103.36149595 </i>
    <i name="e_0_energy">   -103.36149595 </i>
   </energy>
  </scstep>
  <scstep>
   <time name="diag">    0.31    0.31</time>
   <time name="diis">    1.77    1.85</time>
   <time name="orth">    0.02    0.02</time>
   <time name="total">    4.03    4.11</time>
   <energy>
    <i name="e_fr_energy">   -103.36195702 </i>
    <i name="e_wo_entrp">   -103.36195702 </i>
    <i name="e_0_energy">   -103.36195702 </i>
   </energy>
  </scstep>
  <scstep>
   <time name="diag">    0.21    0.21</time>
   <time name="diis">    1.25    1.25</time>
   <time name="orth">    0.01    0.01</time>
   <time name="total">    2.60    2.61</time>
   <energy>
    <i name="e_fr_energy">   -103.36261403 </i>
    <i name="e_wo_entrp">   -103.36261403 </i>
    <i name="e_0_energy">   -103.36261403 </i>
   </energy>
  </scstep>
  <scstep>
   <time name="diag">    0.37    0.38</time>
   <time name="diis">    1.10    1.10</time>
   <time name="orth">    0.01    0.01</time>
   <time name="total">    2.88    2.88</time>
   <energy>
    <i name="e_fr_energy">   -103.36282173 </i>
    <i name="e_wo_entrp">   -103.36282173 </i>
    <i name="e_0_energy">   -103.36282173 </i>
   </energy>
  </scstep>
  <scstep>
   <time name="diag">    0.29    0.30</time>
   <time name="diis">    1.15    1.18</time>
   <time name="orth">    0.01    0.01</time>
   <time name="total">    2.86    2.89</time>
   <energy>
    <i name="e_fr_energy">   -103.36295436 </i>
    <i name="e_wo_entrp">   -103.36295436 </i>
    <i name="e_0_energy">   -103.36295436 </i>
   </energy>
  </scstep>
  <scstep>
   <time name="diag">    0.32    0.32</time>
   <time name="diis">    0.90    0.90</time>
   <time name="orth">    0.01    0.01</time>
   <time name="total">    2.76    2.77</time>
   <energy>
    <i name="e_fr_energy">   -103.36298789 </i>
    <i name="e_wo_entrp">   -103.36298789 </i>
    <i name="e_0_energy">   -103.36298789 </i>
   </energy>
  </scstep>
  <scstep>
   <time name="diag">    0.21    0.21</time>
   <time name="diis">    0.77    0.77</time>
   <time name="orth">    0.01    0.01</time>
   <time name="total">    2.35    2.35</time>
   <energy>
    <i name="e_fr_energy">   -103.36301357 </i>
    <i name="e_wo_entrp">   -103.36301357 </i>
    <i name="e_0_energy">   -103.36301357 </i>
   </energy>
  </scstep>
  <scstep>
   <time name="diag">    0.16    0.16</time>
   <time name="diis">    0.58    0.58</time>
   <time name="orth">    0.01    0.01</time>
   <time name="total">    1.74    1.75</time>
   <energy>
    <i name="e_fr_energy">   -103.36302384 </i>
    <i name="e_wo_entrp">   -103.36302384 </i>
    <i name="e_0_energy">   -103.36302384 </i>
   </energy>
  </scstep>
  <scstep>
   <time name="diag">    0.17    0.17</time>
   <time name="diis">    0.52    0.52</time>
   <time name="orth">    0.01    0.01</time>
   <time name="total">    1.51    1.51</time>
   <energy>
    <i name="alphaZ">      2.15216506 </i>
    <i name="ewald">   2576.68034502 </i>
    <i name="hartreedc">  -3709.15670357 </i>
    <i name="XCdc">    140.88199693 </i>
    <i name="pawpsdc">   3508.49077504 </i>
    <i name="pawaedc">  -3514.82198945 </i>
    <i name="eentropy">     -0.00000000 </i>
    <i name="bandstr">   -514.26288058 </i>
    <i name="atom">   1406.67326350 </i>
    <i name="e_fr_energy">   -103.36302805 </i>
    <i name="e_wo_entrp">   -103.36302805 </i>
    <i name="e_0_energy">   -103.36302805 </i>
   </energy>
  </scstep>
  <structure>
   <crystal>
    <varray name="basis" >
     <v>      15.40225029       0.00000000       0.00000000 </v>
     <v>       0.00000000      15.40225029       0.00000000 </v>
     <v>       0.00000000       0.00000000      15.40225029 </v>
    </varray>
    <i name="volume">   3653.86527022 </i>
    <varray name="rec_basis" >
     <v>       0.06492558       0.00000000       0.00000000 </v>
     <v>       0.00000000       0.06492558       0.00000000 </v>
     <v>       0.00000000       0.00000000       0.06492558 </v>
    </varray>
   </crystal>
   <varray name="positions" >
    <v>       0.33401592       0.44176759       0.56239013 </v>
    <v>       0.33378516       0.52835693       0.56994779 </v>
    <v>       0.41574930       0.57813269       0.55709845 </v>
    <v>       0.41586460       0.39278083       0.54635096 </v>
    <v>       0.48655213       0.44268725       0.49534590 </v>
    <v>       0.46565184       0.53857882       0.47983205 </v>
    <v>       0.54403160       0.58688736       0.46036991 </v>
    <v>       0.27501820       0.40399053       0.57191139 </v>
    <v>       0.44585683       0.37347650       0.60817202 </v>
    <v>       0.40065557       0.33145411       0.51398157 </v>
    <v>       0.27390224       0.56320301       0.58378944 </v>
    <v>       0.45941571       0.57418329       0.61307147 </v>
    <v>       0.40295461       0.64717351       0.54614003 </v>
    <v>       0.49893181       0.41196962       0.43247822 </v>
    <v>       0.54757044       0.43825613       0.53093541 </v>
    <v>       0.42287110       0.54317853       0.42313868 </v>
    <v>       0.60815026       0.62460229       0.44628022 </v>
   </varray>
  </structure>
  <varray name="forces" >
   <v>      -0.02614492       0.12092421       0.24942854 </v>
   <v>      -0.15080475      -0.24242020       0.10690063 </v>
   <v>       0.12666230       0.20611735      -0.16431080 </v>
   <v>       0.18998130      -0.14272972      -0.19822561 </v>
   <v>       0.10680315      -0.24337738      -0.03824004 </v>
   <v>      -0.25825656       0.10796347      -0.11001168 </v>
   <v>       0.10274108       0.04214623      -0.05288006 </v>
   <v>      -0.16759925      -0.00163653      -0.02220442 </v>
   <v>      -0.16016381      -0.04515237       0.27135908 </v>
   <v>      -0.00809215      -0.20772221      -0.16264530 </v>
   <v>      -0.10170604       0.09261621       0.03471333 </v>
   <v>       0.03935489       0.02777737       0.40653065 </v>
   <v>       0.00337933       0.14323137      -0.06439133 </v>
   <v>      -0.01644967      -0.09765437      -0.15315783 </v>
   <v>       0.28976198       0.02095944       0.16764098 </v>
   <v>      -0.13712715       0.08356599      -0.22767203 </v>
   <v>       0.16766027       0.13539114      -0.04283410 </v>
  </varray>
  <varray name="stress" >
   <v>       0.00502273       0.09515885      -0.11262355 </v>
   <v>       0.09515885       0.08705828      -0.02352256 </v>
   <v>      -0.11262355      -0.02352256      -0.08704321 </v>
  </varray>
  <energy>
   <i name="e_fr_energy">   -103.55927021 </i>
   <i name="e_wo_entrp">   -103.55927021 </i>
   <i name="e_0_energy">   -103.55927021 </i>
  </energy>
  <time name="totalsc">  126.43  126.79</time>
 </calculation>
 <calculation>
  <scstep>
   <time name="dav">    3.58    3.58</time>
   <time name="total">    6.19    6.19</time>
   <energy>
    <i name="alphaZ">      2.15216506 </i>
    <i name="ewald">   2573.88288194 </i>
    <i name="hartreedc">  -3706.83527382 </i>
    <i name="XCdc">    140.84612311 </i>
    <i name="pawpsdc">   3508.48944415 </i>
    <i name="pawaedc">  -3514.82064360 </i>
    <i name="eentropy">     -0.00000000 </i>
    <i name="bandstr">   -513.75856085 </i>
    <i name="atom">   1406.67326350 </i>
    <i name="e_fr_energy">   -103.37060051 </i>
    <i name="e_wo_entrp">   -103.37060051 </i>
    <i name="e_0_energy">   -103.37060051 </i>
   </energy>
  </scstep>
  <scstep>
   <time name="diag">    0.56    0.56</time>
   <time name="diis">    2.85    2.85</time>
   <time name="orth">    0.02    0.02</time>
   <time name="total">    5.91    5.91</time>
   <energy>
    <i name="e_fr_energy">   -103.37073984 </i>
    <i name="e_wo_entrp">   -103.37073984 </i>
    <i name="e_0_energy">   -103.37073984 </i>
   </energy>
  </scstep>
  <scstep>
   <time name="diag">    0.40    0.40</time>
   <time name="diis">    2.04    2.04</time>
   <time name="orth">    0.01    0.01</time>
   <time name="total">    4.77    4.77</time>
   <energy>
    <i name="e_fr_energy">   -103.37073069 </i>
    <i name="e_wo_entrp">   -103.37073069 </i>
    <i name="e_0_energy">   -103.37073069 </i>
   </energy>
  </scstep>
  <scstep>
   <time name="diag">    0.53    0.53</time>
   <time name="diis">    2.89    2.89</time>
   <time name="orth">    0.02    0.02</time>
   <time name="total">    5.44    5.44</time>
   <energy>
    <i name="e_fr_energy">   -103.37075119 </i>
    <i name="e_wo_entrp">   -103.37075119 </i>
    <i name="e_0_energy">   -103.37075119 </i>
   </energy>
  </scstep>
  <scstep>
   <time name="diag">    0.49    0.49</time>
   <time name="diis">    2.02    2.02</time>
   <time name="orth">    0.01    0.01</time>
   <time name="total">    4.27    4.27</time>
   <energy>
    <i name="alphaZ">      2.15216506 </i>
    <i name="ewald">   2573.88288194 </i>
    <i name="hartreedc">  -3706.55453290 </i>
    <i name="XCdc">    140.83626149 </i>
    <i name="pawpsdc">   3501.54015677 </i>
    <i name="pawaedc">  -3507.86744155 </i>
    <i name="eentropy">     -0.00000000 </i>
    <i name="bandstr">   -514.03350932 </i>
    <i name="atom">   1406.67326350 </i>
    <i name="e_fr_energy">   -103.37075502 </i>
    <i name="e_wo_entrp">   -103.37075502 </i>
    <i name="e_0_energy">   -103.37075502 </i>
   </energy>
  </scstep>
  <structure>
   <crystal>
    <varray name="basis" >
     <v>      15.40225029       0.00000000       0.00000000 </v>
     <v>       0.00000000      15.40225029       0.00000000 </v>
     <v>       0.00000000       0.00000000      15.40225029 </v>
    </varray>
    <i name="volume">   3653.86527022 </i>
    <varray name="rec_basis" >
     <v>       0.06492558       0.00000000       0.00000000 </v>
     <v>       0.00000000       0.06492558       0.00000000 </v>
     <v>       0.00000000       0.00000000       0.06492558 </v>
    </varray>
   </crystal>
   <varray name="positions" >
    <v>       0.33400489       0.44182197       0.56256256 </v>
    <v>       0.33367402       0.52818578       0.56999335 </v>
    <v>       0.41581856       0.57823439       0.55697424 </v>
    <v>       0.41603098       0.39273995       0.54626853 </v>
    <v>       0.48647217       0.44250965       0.49512209 </v>
    <v>       0.46543550       0.53865978       0.47969099 </v>
    <v>       0.54407584       0.58687592       0.46028766 </v>
    <v>       0.27492052       0.40395595       0.57186324 </v>
    <v>       0.44591123       0.37379221       0.60834064 </v>
    <v>       0.40080142       0.33128357       0.51415234 </v>
    <v>       0.27381422       0.56324641       0.58373700 </v>
    <v>       0.45944795       0.57411009       0.61328259 </v>
    <v>       0.40296988       0.64724567       0.54613120 </v>
    <v>       0.49844805       0.41192158       0.43218693 </v>
    <v>       0.54768026       0.43812509       0.53055790 </v>
    <v>       0.42272788       0.54335367       0.42294717 </v>
    <v>       0.60825525       0.62461070       0.44619971 </v>
   </varray>
  </structure>
  <varray name="forces" >
   <v>      -0.00924958      -0.12134584       0.17928291 </v>
   <v>      -0.07679516       0.04019985       0.10511224 </v>
   <v>       0.07859569       0.09703752      -0.02453601 </v>
   <v>       0.09424675      -0.12242043      -0.08913797 </v>
   <v>       0.11674655      -0.12412698      -0.02361809 </v>
   <v>      -0.13145272       0.06597611      -0.11087736 </v>
   <v>       0.12801362       0.06779418      -0.07207820 </v>
   <v>      -0.12339507       0.01568409      -0.01734330 </v>
   <v>      -0.16006945      -0.04850654       0.22858816 </v>
   <v>      -0.01333678      -0.20172818      -0.15492495 </v>
   <v>      -0.07802638       0.06487508       0.03359206 </v>
   <v>      -0.02033674       0.04053165       0.29368184 </v>
   <v>      -0.00299323       0.15383413      -0.06502115 </v>
   <v>       0.00110323      -0.10751725      -0.17729097 </v>
   <v>       0.25482689       0.02311032       0.13383115 </v>
   <v>      -0.13509740       0.07959871      -0.21964142 </v>
   <v>       0.07721979       0.07700360      -0.01961894 </v>
  </varray>
  <varray name="stress" >
   <v>      -0.19213603       0.07091710      -0.14287869 </v>
   <v>       0.07091710       0.06624231      -0.00131971 </v>
   <v>      -0.14287869      -0.00131971      -0.14678722 </v>
  </varray>
  <energy>
   <i name="e_fr_energy">   -103.56704436 </i>
   <i name="e_wo_entrp">   -103.56704436 </i>
   <i name="e_0_energy">   -103.56704436 </i>
  </energy>
  <time name="totalsc">   36.73   36.75</time>
 </calculation>
 <calculation>
  <scstep>
   <time name="dav">    3.06    3.06</time>
   <time name="total">    5.54    5.57</time>
   <energy>
    <i name="alphaZ">      2.15216506 </i>
    <i name="ewald">   2570.20304812 </i>
    <i name="hartreedc">  -3703.44909760 </i>
    <i name="XCdc">    140.78989939 </i>
    <i name="pawpsdc">   3501.02045349 </i>
    <i name="pawaedc">  -3507.34763339 </i>
    <i name="eentropy">     -0.00000000 </i>
    <i name="bandstr">   -513.41881044 </i>
    <i name="atom">   1406.67326350 </i>
    <i name="e_fr_energy">   -103.37671187 </i>
    <i name="e_wo_entrp">   -103.37671187 </i>
    <i name="e_0_energy">   -103.37671187 </i>
   </energy>
  </scstep>
  <scstep>
   <time name="diag">    0.58    0.58</time>
   <time name="diis">    2.84    2.84</time>
   <time name="orth">    0.02    0.02</time>
   <time name="total">    5.95    5.95</time>
   <energy>
    <i name="e_fr_energy">   -103.37685258 </i>
    <i name="e_wo_entrp">   -103.37685258 </i>
    <i name="e_0_energy">   -103.37685258 </i>
   </energy>
  </scstep>
  <scstep>
   <time name="diag">    0.62    0.62</time>
   <time name="diis">    2.88    2.88</time>
   <time name="orth">    0.02    0.02</time>
   <time name="total">    6.13    6.13</time>
   <energy>
    <i name="e_fr_energy">   -103.37685309 </i>
    <i name="e_wo_entrp">   -103.37685309 </i>
    <i name="e_0_energy">   -103.37685309 </i>
   </energy>
  </scstep>
  <scstep>
   <time name="diag">    0.50    0.50</time>
   <time name="diis">    2.59    2.59</time>
   <time name="orth">    0.01    0.01</time>
   <time name="total">    5.12    5.12</time>
   <energy>
    <i name="e_fr_energy">   -103.37688292 </i>
    <i name="e_wo_entrp">   -103.37688292 </i>
    <i name="e_0_energy">   -103.37688292 </i>
   </energy>
  </scstep>
  <scstep>
   <time name="diag">    0.39    0.39</time>
   <time name="diis">    1.96    1.96</time>
   <time name="orth">    0.01    0.01</time>
   <time name="total">    3.50    3.50</time>
   <energy>
    <i name="alphaZ">      2.15216506 </i>
    <i name="ewald">   2570.20304812 </i>
    <i name="hartreedc">  -3703.11158849 </i>
    <i name="XCdc">    140.77907796 </i>
    <i name="pawpsdc">   3491.30426583 </i>
    <i name="pawaedc">  -3497.62743239 </i>
    <i name="eentropy">     -0.00000000 </i>
    <i name="bandstr">   -513.74968906 </i>
    <i name="atom">   1406.67326350 </i>
    <i name="e_fr_energy">   -103.37688946 </i>
    <i name="e_wo_entrp">   -103.37688946 </i>
    <i name="e_0_energy">   -103.37688946 </i>
   </energy>
  </scstep>
  <structure>
   <crystal>
    <varray name="basis" >
     <v>      15.40225029       0.00000000       0.00000000 </v>
     <v>       0.00000000      15.40225029       0.00000000 </v>
     <v>       0.00000000       0.00000000      15.40225029 </v>
    </varray>
    <i name="volume">   3653.86527022 </i>
    <varray name="rec_basis" >
     <v>       0.06492558       0.00000000       0.00000000 </v>
     <v>       0.00000000       0.06492558       0.00000000 </v>
     <v>       0.00000000       0.00000000       0.06492558 </v>
    </varray>
   </crystal>
   <varray name="positions" >
    <v>       0.33400329       0.44167610       0.56275363 </v>
    <v>       0.33357753       0.52819880       0.57006219 </v>
    <v>       0.41587834       0.57828634       0.55692028 </v>
    <v>       0.41618835       0.39269483       0.54624210 </v>
    <v>       0.48636985       0.44235619       0.49481364 </v>
    <v>       0.46523259       0.53874017       0.47948070 </v>
    <v>       0.54416650       0.58688617       0.46014671 </v>
    <v>       0.27481556       0.40392248       0.57180055 </v>
    <v>       0.44598227       0.37423504       0.60855351 </v>
    <v>       0.40100358       0.33103584       0.51439269 </v>
    <v>       0.27370610       0.56328662       0.58366381 </v>
    <v>       0.45944084       0.57401970       0.61349622 </v>
    <v>       0.40298548       0.64736650       0.54611377 </v>
    <v>       0.49777059       0.41183826       0.43174043 </v>
    <v>       0.54781654       0.43794085       0.52999298 </v>
    <v>       0.42251625       0.54360418       0.42266774 </v>
    <v>       0.60832731       0.62457468       0.44610234 </v>
   </varray>
  </structure>
  <varray name="forces" >
   <v>       0.01109238       0.01159350       0.12987832 </v>
   <v>      -0.01264059      -0.05438783       0.07802271 </v>
   <v>       0.04001915       0.07740790       0.04139360 </v>
   <v>       0.02379528      -0.12727215      -0.01891244 </v>
   <v>       0.11316394      -0.03861941      -0.03156454 </v>
   <v>      -0.03028848       0.04260986      -0.11003417 </v>
   <v>      -0.02364470      -0.00945466      -0.04935434 </v>
   <v>      -0.11368837       0.00196853      -0.00687116 </v>
   <v>      -0.14643626      -0.05929028       0.19696192 </v>
   <v>      -0.00862520      -0.18153374      -0.13357395 </v>
   <v>      -0.07796377       0.06140725       0.03813688 </v>
   <v>      -0.05435160       0.04902106       0.20655123 </v>
   <v>       0.00626238       0.11994127      -0.05319980 </v>
   <v>       0.01585218      -0.10524566      -0.17256428 </v>
   <v>       0.22126762       0.02459451       0.09977354 </v>
   <v>      -0.11178094       0.07361672      -0.18239973 </v>
   <v>       0.14796698       0.11364314      -0.03224379 </v>
  </varray>
  <varray name="stress" >
   <v>      -0.28762000       0.08419705      -0.17586933 </v>
   <v>       0.08419705      -0.10145433      -0.00779917 </v>
   <v>      -0.17586933      -0.00779917      -0.24249499 </v>
  </varray>
  <energy>
   <i name="e_fr_energy">   -103.57323646 </i>
   <i name="e_wo_entrp">   -103.57323646 </i>
   <i name="e_0_energy">   -103.57323646 </i>
  </energy>
  <time name="totalsc">   38.29   38.33</time>
 </calculation>
 <calculation>
  <scstep>
   <time name="dav">    3.53    3.73</time>
   <time name="total">    6.17    6.36</time>
   <energy>
    <i name="alphaZ">      2.15216506 </i>
    <i name="ewald">   2568.07153004 </i>
    <i name="hartreedc">  -3701.36347465 </i>
    <i name="XCdc">    140.74978744 </i>
    <i name="pawpsdc">   3490.95866656 </i>
    <i name="pawaedc">  -3497.28155266 </i>
    <i name="eentropy">     -0.00000000 </i>
    <i name="bandstr">   -513.33991371 </i>
    <i name="atom">   1406.67326350 </i>
    <i name="e_fr_energy">   -103.37952842 </i>
    <i name="e_wo_entrp">   -103.37952842 </i>
    <i name="e_0_energy">   -103.37952842 </i>
   </energy>
  </scstep>
  <scstep>
   <time name="diag">    0.39    0.39</time>
   <time name="diis">    2.02    2.02</time>
   <time name="orth">    0.01    0.01</time>
   <time name="total">    4.23    4.24</time>
   <energy>
    <i name="e_fr_energy">   -103.37956763 </i>
    <i name="e_wo_entrp">   -103.37956763 </i>
    <i name="e_0_energy">   -103.37956763 </i>
   </energy>
  </scstep>
  <scstep>
   <time name="diag">    0.40    0.40</time>
   <time name="diis">    2.01    2.02</time>
   <time name="orth">    0.01    0.01</time>
   <time name="total">    4.15    4.16</time>
   <energy>
    <i name="e_fr_energy">   -103.37957289 </i>
    <i name="e_wo_entrp">   -103.37957289 </i>
    <i name="e_0_energy">   -103.37957289 </i>
   </energy>
  </scstep>
  <scstep>
   <time name="diag">    0.55    0.55</time>
   <time name="diis">    2.71    2.71</time>
   <time name="orth">    0.03    0.03</time>
   <time name="total">    5.91    5.91</time>
   <energy>
    <i name="e_fr_energy">   -103.37958313 </i>
    <i name="e_wo_entrp">   -103.37958313 </i>
    <i name="e_0_energy">   -103.37958313 </i>
   </energy>
  </scstep>
  <scstep>
   <time name="diag">    0.41    0.41</time>
   <time name="diis">    1.39    1.39</time>
   <time name="orth">    0.02    0.02</time>
   <time name="total">    3.68    3.68</time>
   <energy>
    <i name="alphaZ">      2.15216506 </i>
    <i name="ewald">   2568.07153004 </i>
    <i name="hartreedc">  -3701.07860194 </i>
    <i name="XCdc">    140.73859689 </i>
    <i name="pawpsdc">   3484.00587711 </i>
    <i name="pawaedc">  -3490.32465044 </i>
    <i name="eentropy">     -0.00000000 </i>
    <i name="bandstr">   -513.61776703 </i>
    <i name="atom">   1406.67326350 </i>
    <i name="e_fr_energy">   -103.37958682 </i>
    <i name="e_wo_entrp">   -103.37958682 </i>
    <i name="e_0_energy">   -103.37958682 </i>
   </energy>
  </scstep>
  <structure>
   <crystal>
    <varray name="basis" >
     <v>      15.40225029       0.00000000       0.00000000 </v>
     <v>       0.00000000      15.40225029       0.00000000 </v>
     <v>       0.00000000       0.00000000      15.40225029 </v>
    </varray>
    <i name="volume">   3653.86527022 </i>
    <varray name="rec_basis" >
     <v>       0.06492558       0.00000000       0.00000000 </v>
     <v>       0.00000000       0.06492558       0.00000000 </v>
     <v>       0.00000000       0.00000000       0.06492558 </v>
    </varray>
   </crystal>
   <varray name="positions" >
    <v>       0.33401134       0.44164405       0.56285478 </v>
    <v>       0.33354483       0.52816449       0.57009601 </v>
    <v>       0.41590040       0.57831301       0.55691602 </v>
    <v>       0.41625675       0.39266044       0.54625406 </v>
    <v>       0.48630809       0.44229606       0.49461770 </v>
    <v>       0.46514846       0.53878114       0.47934554 </v>
    <v>       0.54415624       0.58685942       0.46006571 </v>
    <v>       0.27475109       0.40389564       0.57176773 </v>
    <v>       0.44602709       0.37450007       0.60867812 </v>
    <v>       0.40112978       0.33088522       0.51454357 </v>
    <v>       0.27363631       0.56331243       0.58362271 </v>
    <v>       0.45942068       0.57396978       0.61359792 </v>
    <v>       0.40299921       0.64743136       0.54610537 </v>
    <v>       0.49735736       0.41178349       0.43146020 </v>
    <v>       0.54789321       0.43782855       0.52963177 </v>
    <v>       0.42238993       0.54375913       0.42250283 </v>
    <v>       0.60840674       0.62457244       0.44603427 </v>
   </varray>
  </structure>
  <varray name="forces" >
   <v>       0.00347914      -0.01163960       0.10230743 </v>
   <v>      -0.00474197      -0.01762957       0.07469028 </v>
   <v>       0.02347700       0.06523087       0.05179726 </v>
   <v>      -0.00063467      -0.11466917       0.00135687 </v>
   <v>       0.10749659      -0.02132329      -0.03325799 </v>
   <v>      -0.02201348       0.02829051      -0.09858688 </v>
   <v>       0.09320907       0.06546541      -0.07977186 </v>
   <v>      -0.09296811       0.00915878      -0.00424440 </v>
   <v>      -0.13755029      -0.06590241       0.18426665 </v>
   <v>      -0.00901356      -0.16850700      -0.12058810 </v>
   <v>      -0.05869018       0.04612517       0.03583894 </v>
   <v>      -0.06366222       0.05261590       0.17168827 </v>
   <v>       0.00852228       0.09985293      -0.04550820 </v>
   <v>       0.02247195      -0.09999015      -0.16243201 </v>
   <v>       0.20369129       0.02565474       0.08168148 </v>
   <v>      -0.09520082       0.06907153      -0.15559449 </v>
   <v>       0.02212797       0.03819535      -0.00364322 </v>
  </varray>
  <varray name="stress" >
   <v>      -0.39818969       0.05722380      -0.16736192 </v>
   <v>       0.05722380      -0.17572837      -0.00425980 </v>
   <v>      -0.16736192      -0.00425980      -0.29599237 </v>
  </varray>
  <energy>
   <i name="e_fr_energy">   -103.57595347 </i>
   <i name="e_wo_entrp">   -103.57595347 </i>
   <i name="e_0_energy">   -103.57595347 </i>
  </energy>
  <time name="totalsc">   35.77   36.00</time>
 </calculation>
 <calculation>
  <scstep>
   <time name="dav">    2.27    2.27</time>
   <time name="total">    3.91    3.91</time>
   <energy>
    <i name="alphaZ">      2.15216506 </i>
    <i name="ewald">   2566.82074081 </i>
    <i name="hartreedc">  -3700.01494516 </i>
    <i name="XCdc">    140.72311003 </i>
    <i name="pawpsdc">   3483.31087783 </i>
    <i name="pawaedc">  -3489.62965516 </i>
    <i name="eentropy">     -0.00000000 </i>
    <i name="bandstr">   -513.41676212 </i>
    <i name="atom">   1406.67326350 </i>
    <i name="e_fr_energy">   -103.38120522 </i>
    <i name="e_wo_entrp">   -103.38120522 </i>
    <i name="e_0_energy">   -103.38120522 </i>
   </energy>
  </scstep>
  <scstep>
   <time name="diag">    0.36    0.36</time>
   <time name="diis">    2.11    2.11</time>
   <time name="orth">    0.01    0.01</time>
   <time name="total">    4.10    4.10</time>
   <energy>
    <i name="e_fr_energy">   -103.38123475 </i>
    <i name="e_wo_entrp">   -103.38123475 </i>
    <i name="e_0_energy">   -103.38123475 </i>
   </energy>
  </scstep>
  <scstep>
   <time name="diag">    0.44    0.44</time>
   <time name="diis">    1.58    1.58</time>
   <time name="orth">    0.01    0.01</time>
   <time name="total">    4.01    4.01</time>
   <energy>
    <i name="e_fr_energy">   -103.38124224 </i>
    <i name="e_wo_entrp">   -103.38124224 </i>
    <i name="e_0_energy">   -103.38124224 </i>
   </energy>
  </scstep>
  <scstep>
   <time name="diag">    0.34    0.34</time>
   <time name="diis">    1.88    1.88</time>
   <time name="orth">    0.02    0.02</time>
   <time name="total">    3.69    3.69</time>
   <energy>
    <i name="alphaZ">      2.15216506 </i>
    <i name="ewald">   2566.82074081 </i>
    <i name="hartreedc">  -3699.87529171 </i>
    <i name="XCdc">    140.71925595 </i>
    <i name="pawpsdc">   3480.99652746 </i>
    <i name="pawaedc">  -3487.31394089 </i>
    <i name="eentropy">     -0.00000000 </i>
    <i name="bandstr">   -513.55396862 </i>
    <i name="atom">   1406.67326350 </i>
    <i name="e_fr_energy">   -103.38124845 </i>
    <i name="e_wo_entrp">   -103.38124845 </i>
    <i name="e_0_energy">   -103.38124845 </i>
   </energy>
  </scstep>
  <structure>
   <crystal>
    <varray name="basis" >
     <v>      15.40225029       0.00000000       0.00000000 </v>
     <v>       0.00000000      15.40225029       0.00000000 </v>
     <v>       0.00000000       0.00000000      15.40225029 </v>
    </varray>
    <i name="volume">   3653.86527022 </i>
    <varray name="rec_basis" >
     <v>       0.06492558       0.00000000       0.00000000 </v>
     <v>       0.00000000       0.06492558       0.00000000 </v>
     <v>       0.00000000       0.00000000       0.06492558 </v>
    </varray>
   </crystal>
   <varray name="positions" >
    <v>       0.33401930       0.44163782       0.56291787 </v>
    <v>       0.33353748       0.52813095       0.57012015 </v>
    <v>       0.41590158       0.57832761       0.55693706 </v>
    <v>       0.41628380       0.39263090       0.54629253 </v>
    <v>       0.48625561       0.44227463       0.49444429 </v>
    <v>       0.46510486       0.53880339       0.47922927 </v>
    <v>       0.54417790       0.58686252       0.45997853 </v>
    <v>       0.27470572       0.40387327       0.57174593 </v>
    <v>       0.44606695       0.37471398       0.60877839 </v>
    <v>       0.40123756       0.33076066       0.51467616 </v>
    <v>       0.27358416       0.56332775       0.58359052 </v>
    <v>       0.45938699       0.57393493       0.61365130 </v>
    <v>       0.40301493       0.64747253       0.54610203 </v>
    <v>       0.49701094       0.41173429       0.43121885 </v>
    <v>       0.54794945       0.43773502       0.52930692 </v>
    <v>       0.42229025       0.54389118       0.42237613 </v>
    <v>       0.60842264       0.62454003       0.44598680 </v>
   </varray>
  </structure>
  <varray name="forces" >
   <v>      -0.01136017      -0.05578845       0.08648130 </v>
   <v>      -0.01702916       0.03137464       0.07671335 </v>
   <v>       0.02206403       0.05720520       0.03058072 </v>
   <v>       0.00004991      -0.09662404      -0.00329852 </v>
   <v>       0.09570218      -0.03111826      -0.03344422 </v>
   <v>      -0.02294665       0.03699909      -0.08597106 </v>
   <v>       0.02959950       0.03085007      -0.06699904 </v>
   <v>      -0.07456612       0.01996611      -0.00380362 </v>
   <v>      -0.12962433      -0.07062438       0.17918263 </v>
   <v>      -0.01064583      -0.15615181      -0.10925247 </v>
   <v>      -0.03757855       0.03101439       0.03237079 </v>
   <v>      -0.05978529       0.05355427       0.16103766 </v>
   <v>       0.00845558       0.08599370      -0.03931990 </v>
   <v>       0.02586641      -0.09266588      -0.14877066 </v>
   <v>       0.19376730       0.02599293       0.07084954 </v>
   <v>      -0.07953992       0.06554863      -0.13287071 </v>
   <v>       0.06757112       0.06447380      -0.01348581 </v>
  </varray>
  <varray name="stress" >
   <v>      -0.42492425       0.06492760      -0.15910319 </v>
   <v>       0.06492760      -0.19982343      -0.00961749 </v>
   <v>      -0.15910319      -0.00961749      -0.33920565 </v>
  </varray>
  <energy>
   <i name="e_fr_energy">   -103.57763994 </i>
   <i name="e_wo_entrp">   -103.57763994 </i>
   <i name="e_0_energy">   -103.57763994 </i>
  </energy>
  <time name="totalsc">   34.90   35.77</time>
 </calculation>
 <calculation>
  <scstep>
   <time name="dav">    1.37    1.45</time>
   <time name="total">    2.86    3.08</time>
   <energy>
    <i name="alphaZ">      2.15216506 </i>
    <i name="ewald">   2564.00437580 </i>
    <i name="hartreedc">  -3697.51052065 </i>
    <i name="XCdc">    140.68509564 </i>
    <i name="pawpsdc">   3480.74750382 </i>
    <i name="pawaedc">  -3487.06508528 </i>
    <i name="eentropy">     -0.00000000 </i>
    <i name="bandstr">   -513.07021404 </i>
    <i name="atom">   1406.67326350 </i>
    <i name="e_fr_energy">   -103.38341616 </i>
    <i name="e_wo_entrp">   -103.38341616 </i>
    <i name="e_0_energy">   -103.38341616 </i>
   </energy>
  </scstep>
  <scstep>
   <time name="diag">    0.42    0.43</time>
   <time name="diis">    1.77    2.52</time>
   <time name="orth">    0.02    0.03</time>
   <time name="total">    4.11    5.30</time>
   <energy>
    <i name="e_fr_energy">   -103.38364095 </i>
    <i name="e_wo_entrp">   -103.38364095 </i>
    <i name="e_0_energy">   -103.38364095 </i>
   </energy>
  </scstep>
  <scstep>
   <time name="diag">    0.42    0.70</time>
   <time name="diis">    1.42    1.98</time>
   <time name="orth">    0.01    0.01</time>
   <time name="total">    3.65    6.09</time>
   <energy>
    <i name="e_fr_energy">   -103.38367165 </i>
    <i name="e_wo_entrp">   -103.38367165 </i>
    <i name="e_0_energy">   -103.38367165 </i>
   </energy>
  </scstep>
  <scstep>
   <time name="diag">    0.37    0.38</time>
   <time name="diis">    1.78    2.04</time>
   <time name="orth">    0.01    0.01</time>
   <time name="total">    3.85    4.40</time>
   <energy>
    <i name="e_fr_energy">   -103.38369920 </i>
    <i name="e_wo_entrp">   -103.38369920 </i>
    <i name="e_0_energy">   -103.38369920 </i>
   </energy>
  </scstep>
  <scstep>
   <time name="diag">    0.53    0.54</time>
   <time name="diis">    1.84    1.94</time>
   <time name="orth">    0.01    0.01</time>
   <time name="total">    3.99    4.26</time>
   <energy>
    <i name="alphaZ">      2.15216506 </i>
    <i name="ewald">   2564.00437580 </i>
    <i name="hartreedc">  -3697.22930674 </i>
    <i name="XCdc">    140.67570334 </i>
    <i name="pawpsdc">   3473.40175690 </i>
    <i name="pawaedc">  -3479.71565700 </i>
    <i name="eentropy">     -0.00000000 </i>
    <i name="bandstr">   -513.34600605 </i>
    <i name="atom">   1406.67326350 </i>
    <i name="e_fr_energy">   -103.38370518 </i>
    <i name="e_wo_entrp">   -103.38370518 </i>
    <i name="e_0_energy">   -103.38370518 </i>
   </energy>
  </scstep>
  <structure>
   <crystal>
    <varray name="basis" >
     <v>      15.40225029       0.00000000       0.00000000 </v>
     <v>       0.00000000      15.40225029       0.00000000 </v>
     <v>       0.00000000       0.00000000      15.40225029 </v>
    </varray>
    <i name="volume">   3653.86527022 </i>
    <varray name="rec_basis" >
     <v>       0.06492558       0.00000000       0.00000000 </v>
     <v>       0.00000000       0.06492558       0.00000000 </v>
     <v>       0.00000000       0.00000000       0.06492558 </v>
    </varray>
   </crystal>
   <varray name="positions" >
    <v>       0.33400281       0.44153833       0.56300441 </v>
    <v>       0.33351836       0.52817057       0.57018431 </v>
    <v>       0.41587781       0.57833786       0.55697429 </v>
    <v>       0.41630380       0.39259287       0.54641244 </v>
    <v>       0.48611266       0.44223963       0.49401689 </v>
    <v>       0.46503336       0.53886152       0.47896917 </v>
    <v>       0.54414466       0.58684159       0.45975897 </v>
    <v>       0.27464961       0.40384889       0.57170809 </v>
    <v>       0.44616817       0.37517953       0.60901372 </v>
    <v>       0.40148744       0.33048439       0.51500604 </v>
    <v>       0.27351779       0.56332185       0.58351589 </v>
    <v>       0.45928638       0.57387349       0.61372031 </v>
    <v>       0.40305896       0.64752625       0.54610768 </v>
    <v>       0.49620538       0.41162001       0.43065873 </v>
    <v>       0.54806429       0.43752053       0.52849067 </v>
    <v>       0.42209082       0.54420310       0.42213188 </v>
    <v>       0.60848030       0.62447818       0.44586530 </v>
   </varray>
  </structure>
  <varray name="forces" >
   <v>      -0.00705693       0.05940397       0.07517064 </v>
   <v>      -0.01590451      -0.08419107       0.05287141 </v>
   <v>       0.03363016       0.05614521      -0.02343960 </v>
   <v>       0.02949559      -0.07889961      -0.03485540 </v>
   <v>       0.06470830      -0.05837221      -0.02007729 </v>
   <v>      -0.06560108       0.03460770      -0.05115758 </v>
   <v>       0.08641471       0.06884865      -0.07272631 </v>
   <v>      -0.08088364       0.01268040       0.00101663 </v>
   <v>      -0.11518244      -0.07374939       0.16550985 </v>
   <v>      -0.01171386      -0.12648900      -0.08238320 </v>
   <v>      -0.03937993       0.03393374       0.03562169 </v>
   <v>      -0.04170796       0.05112481       0.15223992 </v>
   <v>       0.00785649       0.06931577      -0.02985681 </v>
   <v>       0.02867340      -0.07760970      -0.12188422 </v>
   <v>       0.17290307       0.02481413       0.05230835 </v>
   <v>      -0.05713587       0.05728434      -0.09556014 </v>
   <v>       0.01088449       0.03115226      -0.00279795 </v>
  </varray>
  <varray name="stress" >
   <v>      -0.48151807       0.04886039      -0.13142270 </v>
   <v>       0.04886039      -0.32876893      -0.01803687 </v>
   <v>      -0.13142270      -0.01803687      -0.43920656 </v>
  </varray>
  <energy>
   <i name="e_fr_energy">   -103.58012624 </i>
   <i name="e_wo_entrp">   -103.58012624 </i>
   <i name="e_0_energy">   -103.58012624 </i>
  </energy>
  <time name="totalsc">   37.27   46.10</time>
 </calculation>
 <calculation>
  <scstep>
   <time name="dav">    1.87    3.56</time>
   <time name="total">    3.83    5.94</time>
   <energy>
    <i name="alphaZ">      2.15216506 </i>
    <i name="ewald">   2559.92460897 </i>
    <i name="hartreedc">  -3693.70050963 </i>
    <i name="XCdc">    140.62535734 </i>
    <i name="pawpsdc">   3472.82433350 </i>
    <i name="pawaedc">  -3479.13819488 </i>
    <i name="eentropy">     -0.00000000 </i>
    <i name="bandstr">   -512.74685620 </i>
    <i name="atom">   1406.67326350 </i>
    <i name="e_fr_energy">   -103.38583234 </i>
    <i name="e_wo_entrp">   -103.38583234 </i>
    <i name="e_0_energy">   -103.38583234 </i>
   </energy>
  </scstep>
  <scstep>
   <time name="diag">    0.42    0.43</time>
   <time name="diis">    1.87    2.51</time>
   <time name="orth">    0.03    0.03</time>
   <time name="total">    5.12    6.26</time>
   <energy>
    <i name="e_fr_energy">   -103.38653512 </i>
    <i name="e_wo_entrp">   -103.38653512 </i>
    <i name="e_0_energy">   -103.38653512 </i>
   </energy>
  </scstep>
  <scstep>
   <time name="diag">    0.23    0.47</time>
   <time name="diis">    1.64    2.16</time>
   <time name="orth">    0.02    0.03</time>
   <time name="total">    3.35    5.05</time>
   <energy>
    <i name="e_fr_energy">   -103.38659910 </i>
    <i name="e_wo_entrp">   -103.38659910 </i>
    <i name="e_0_energy">   -103.38659910 </i>
   </energy>
  </scstep>
  <scstep>
   <time name="diag">    0.68    0.95</time>
   <time name="diis">    2.91    3.33</time>
   <time name="orth">    0.01    0.01</time>
   <time name="total">    5.56    6.45</time>
   <energy>
    <i name="e_fr_energy">   -103.38667424 </i>
    <i name="e_wo_entrp">   -103.38667424 </i>
    <i name="e_0_energy">   -103.38667424 </i>
   </energy>
  </scstep>
  <scstep>
   <time name="diag">    0.27    0.36</time>
   <time name="diis">    1.14    1.63</time>
   <time name="orth">    0.01    0.01</time>
   <time name="total">    3.17    4.13</time>
   <energy>
    <i name="e_fr_energy">   -103.38668590 </i>
    <i name="e_wo_entrp">   -103.38668590 </i>
    <i name="e_0_energy">   -103.38668590 </i>
   </energy>
  </scstep>
  <scstep>
   <time name="diag">    0.13    0.21</time>
   <time name="diis">    0.56    0.88</time>
   <time name="orth">    0.01    0.01</time>
   <time name="total">    1.38    2.09</time>
   <energy>
    <i name="alphaZ">      2.15216506 </i>
    <i name="ewald">   2559.92460897 </i>
    <i name="hartreedc">  -3693.37754951 </i>
    <i name="XCdc">    140.61655332 </i>
    <i name="pawpsdc">   3464.20337922 </i>
    <i name="pawaedc">  -3470.51374731 </i>
    <i name="eentropy">     -0.00000000 </i>
    <i name="bandstr">   -513.06536240 </i>
    <i name="atom">   1406.67326350 </i>
    <i name="e_fr_energy">   -103.38668915 </i>
    <i name="e_wo_entrp">   -103.38668915 </i>
    <i name="e_0_energy">   -103.38668915 </i>
   </energy>
  </scstep>
  <structure>
   <crystal>
    <varray name="basis" >
     <v>      15.40225029       0.00000000       0.00000000 </v>
     <v>       0.00000000      15.40225029       0.00000000 </v>
     <v>       0.00000000       0.00000000      15.40225029 </v>
    </varray>
    <i name="volume">   3653.86527022 </i>
    <varray name="rec_basis" >
     <v>       0.06492558       0.00000000       0.00000000 </v>
     <v>       0.00000000       0.06492558       0.00000000 </v>
     <v>       0.00000000       0.00000000       0.06492558 </v>
    </varray>
   </crystal>
   <varray name="positions" >
    <v>       0.33397880       0.44153222       0.56316136 </v>
    <v>       0.33347776       0.52806169       0.57027437 </v>
    <v>       0.41586343       0.57836719       0.55695016 </v>
    <v>       0.41639518       0.39253618       0.54656552 </v>
    <v>       0.48582303       0.44212051       0.49326974 </v>
    <v>       0.46482592       0.53897277       0.47854206 </v>
    <v>       0.54415221       0.58685306       0.45935061 </v>
    <v>       0.27452541       0.40379604       0.57165204 </v>
    <v>       0.44634770       0.37598784       0.60944137 </v>
    <v>       0.40192784       0.33001400       0.51560919 </v>
    <v>       0.27338773       0.56332445       0.58339671 </v>
    <v>       0.45913082       0.57376979       0.61386464 </v>
    <v>       0.40313740       0.64761416       0.54612108 </v>
    <v>       0.49477421       0.41142406       0.42967918 </v>
    <v>       0.54826788       0.43714143       0.52702071 </v>
    <v>       0.42175195       0.54475632       0.42172537 </v>
    <v>       0.60853147       0.62434375       0.44565272 </v>
   </varray>
  </structure>
  <varray name="forces" >
   <v>      -0.01799471      -0.08551182       0.03073306 </v>
   <v>      -0.02838598       0.06310620       0.03762523 </v>
   <v>       0.03425219       0.01833777      -0.04075116 </v>
   <v>       0.03914218      -0.04116085      -0.03084810 </v>
   <v>       0.04232136      -0.06677433      -0.00752554 </v>
   <v>      -0.04378500       0.03719388      -0.01872363 </v>
   <v>      -0.07309533      -0.01888450      -0.02698916 </v>
   <v>      -0.04467768       0.03407800       0.00463852 </v>
   <v>      -0.10027446      -0.07212278       0.11944507 </v>
   <v>      -0.02021818      -0.08041117      -0.04339922 </v>
   <v>      -0.00244325       0.00682787       0.03358884 </v>
   <v>      -0.03242649       0.04994712       0.10509069 </v>
   <v>      -0.00147864       0.04884610      -0.01920248 </v>
   <v>       0.03477541      -0.05270825      -0.08078263 </v>
   <v>       0.12788985       0.02281557       0.01680476 </v>
   <v>      -0.03124136       0.04412991      -0.04932279 </v>
   <v>       0.11764008       0.09229126      -0.03038146 </v>
  </varray>
  <varray name="stress" >
   <v>      -0.57325467       0.06217224      -0.11040555 </v>
   <v>       0.06217224      -0.41089219      -0.02333340 </v>
   <v>      -0.11040555      -0.02333340      -0.59338619 </v>
  </varray>
  <energy>
   <i name="e_fr_energy">   -103.58318242 </i>
   <i name="e_wo_entrp">   -103.58318242 </i>
   <i name="e_0_energy">   -103.58318242 </i>
  </energy>
  <time name="totalsc">   36.75   48.80</time>
 </calculation>
 <calculation>
  <scstep>
   <time name="dav">    2.01    2.19</time>
   <time name="total">    3.70    4.93</time>
   <energy>
    <i name="alphaZ">      2.15216506 </i>
    <i name="ewald">   2558.11319667 </i>
    <i name="hartreedc">  -3691.90408743 </i>
    <i name="XCdc">    140.59275390 </i>
    <i name="pawpsdc">   3463.84102762 </i>
    <i name="pawaedc">  -3470.15124750 </i>
    <i name="eentropy">     -0.00000000 </i>
    <i name="bandstr">   -512.70436162 </i>
    <i name="atom">   1406.67326350 </i>
    <i name="e_fr_energy">   -103.38728979 </i>
    <i name="e_wo_entrp">   -103.38728979 </i>
    <i name="e_0_energy">   -103.38728979 </i>
   </energy>
  </scstep>
  <scstep>
   <time name="diag">    0.23    0.23</time>
   <time name="diis">    2.21    3.00</time>
   <time name="orth">    0.02    0.04</time>
   <time name="total">    4.03    5.02</time>
   <energy>
    <i name="e_fr_energy">   -103.38738646 </i>
    <i name="e_wo_entrp">   -103.38738646 </i>
    <i name="e_0_energy">   -103.38738646 </i>
   </energy>
  </scstep>
  <scstep>
   <time name="diag">    0.23    0.42</time>
   <time name="diis">    1.69    3.08</time>
   <time name="orth">    0.04    0.04</time>
   <time name="total">    4.14    6.29</time>
   <energy>
    <i name="e_fr_energy">   -103.38740077 </i>
    <i name="e_wo_entrp">   -103.38740077 </i>
    <i name="e_0_energy">   -103.38740077 </i>
   </energy>
  </scstep>
  <scstep>
   <time name="diag">    0.36    0.70</time>
   <time name="diis">    2.81    2.99</time>
   <time name="orth">    0.01    0.04</time>
   <time name="total">    5.08    6.79</time>
   <energy>
    <i name="e_fr_energy">   -103.38741498 </i>
    <i name="e_wo_entrp">   -103.38741498 </i>
    <i name="e_0_energy">   -103.38741498 </i>
   </energy>
  </scstep>
  <scstep>
   <time name="diag">    0.38    0.49</time>
   <time name="diis">    1.46    1.49</time>
   <time name="orth">    0.01    0.01</time>
   <time name="total">    3.20    3.88</time>
   <energy>
    <i name="alphaZ">      2.15216506 </i>
    <i name="ewald">   2558.11319667 </i>
    <i name="hartreedc">  -3691.65602683 </i>
    <i name="XCdc">    140.58262068 </i>
    <i name="pawpsdc">   3457.66769337 </i>
    <i name="pawaedc">  -3463.97408230 </i>
    <i name="eentropy">     -0.00000000 </i>
    <i name="bandstr">   -512.94625062 </i>
    <i name="atom">   1406.67326350 </i>
    <i name="e_fr_energy">   -103.38742048 </i>
    <i name="e_wo_entrp">   -103.38742048 </i>
    <i name="e_0_energy">   -103.38742048 </i>
   </energy>
  </scstep>
  <structure>
   <crystal>
    <varray name="basis" >
     <v>      15.40225029       0.00000000       0.00000000 </v>
     <v>       0.00000000      15.40225029       0.00000000 </v>
     <v>       0.00000000       0.00000000      15.40225029 </v>
    </varray>
    <i name="volume">   3653.86527022 </i>
    <varray name="rec_basis" >
     <v>       0.06492558       0.00000000       0.00000000 </v>
     <v>       0.00000000       0.06492558       0.00000000 </v>
     <v>       0.00000000       0.00000000       0.06492558 </v>
    </varray>
   </crystal>
   <varray name="positions" >
    <v>       0.33396213       0.44148123       0.56320208 </v>
    <v>       0.33345511       0.52807002       0.57030408 </v>
    <v>       0.41586222       0.57836503       0.55691955 </v>
    <v>       0.41643953       0.39252762       0.54661873 </v>
    <v>       0.48570167       0.44206125       0.49298570 </v>
    <v>       0.46474475       0.53902116       0.47839160 </v>
    <v>       0.54408334       0.58682420       0.45920322 </v>
    <v>       0.27448860       0.40378807       0.57163771 </v>
    <v>       0.44641139       0.37628210       0.60960048 </v>
    <v>       0.40209015       0.32984715       0.51585121 </v>
    <v>       0.27335456       0.56331449       0.58335742 </v>
    <v>       0.45907125       0.57373868       0.61390889 </v>
    <v>       0.40316476       0.64764071       0.54612800 </v>
    <v>       0.49423100       0.41135307       0.42931262 </v>
    <v>       0.54833929       0.43699896       0.52643645 </v>
    <v>       0.42163180       0.54496805       0.42158789 </v>
    <v>       0.60860040       0.62432459       0.44555471 </v>
   </varray>
  </structure>
  <varray name="forces" >
   <v>      -0.00770874      -0.03711598       0.02165662 </v>
   <v>      -0.01674273       0.01522870       0.02035703 </v>
   <v>       0.02884975       0.01880008      -0.03365309 </v>
   <v>       0.03650927      -0.04001967      -0.02652035 </v>
   <v>       0.03660525      -0.05963813      -0.00380923 </v>
   <v>      -0.05291514       0.01509787      -0.00789498 </v>
   <v>       0.10553997       0.08620241      -0.05859348 </v>
   <v>      -0.04715630       0.02789641       0.00724356 </v>
   <v>      -0.09467351      -0.06970496       0.10033136 </v>
   <v>      -0.02109239      -0.06513206      -0.03146435 </v>
   <v>      -0.00671881       0.01054981       0.03636232 </v>
   <v>      -0.02949470       0.04809258       0.08610962 </v>
   <v>      -0.00241065       0.04049086      -0.01735585 </v>
   <v>       0.03593810      -0.04434753      -0.06775709 </v>
   <v>       0.11198964       0.02107101       0.00700631 </v>
   <v>      -0.02625422       0.03773686      -0.03597724 </v>
   <v>      -0.05026482      -0.00520825       0.00395885 </v>
  </varray>
  <varray name="stress" >
   <v>      -0.65794659       0.02573315      -0.09180404 </v>
   <v>       0.02573315      -0.49571593      -0.01673924 </v>
   <v>      -0.09180404      -0.01673924      -0.64226422 </v>
  </varray>
  <energy>
   <i name="e_fr_energy">   -103.58391768 </i>
   <i name="e_wo_entrp">   -103.58391768 </i>
   <i name="e_0_energy">   -103.58391768 </i>
  </energy>
  <time name="totalsc">   37.28   49.11</time>
 </calculation>
 <calculation>
  <scstep>
   <time name="dav">    1.78    2.24</time>
   <time name="total">    3.83    4.50</time>
   <energy>
    <i name="alphaZ">      2.15216506 </i>
    <i name="ewald">   2556.05121901 </i>
    <i name="hartreedc">  -3689.86053760 </i>
    <i name="XCdc">    140.55819816 </i>
    <i name="pawpsdc">   3457.13452281 </i>
    <i name="pawaedc">  -3463.44091844 </i>
    <i name="eentropy">     -0.00000000 </i>
    <i name="bandstr">   -512.65577288 </i>
    <i name="atom">   1406.67326350 </i>
    <i name="e_fr_energy">   -103.38786037 </i>
    <i name="e_wo_entrp">   -103.38786037 </i>
    <i name="e_0_energy">   -103.38786037 </i>
   </energy>
  </scstep>
  <scstep>
   <time name="diag">    0.28    0.43</time>
   <time name="diis">    1.80    2.68</time>
   <time name="orth">    0.01    0.01</time>
   <time name="total">    3.97    5.83</time>
   <energy>
    <i name="e_fr_energy">   -103.38803640 </i>
    <i name="e_wo_entrp">   -103.38803640 </i>
    <i name="e_0_energy">   -103.38803640 </i>
   </energy>
  </scstep>
  <scstep>
   <time name="diag">    0.32    0.56</time>
   <time name="diis">    1.61    1.88</time>
   <time name="orth">    0.01    0.02</time>
   <time name="total">    3.92    4.94</time>
   <energy>
    <i name="e_fr_energy">   -103.38806234 </i>
    <i name="e_wo_entrp">   -103.38806234 </i>
    <i name="e_0_energy">   -103.38806234 </i>
   </energy>
  </scstep>
  <scstep>
   <time name="diag">    0.42    0.46</time>
   <time name="diis">    2.10    2.98</time>
   <time name="orth">    0.02    0.04</time>
   <time name="total">    4.37    5.71</time>
   <energy>
    <i name="e_fr_energy">   -103.38808552 </i>
    <i name="e_wo_entrp">   -103.38808552 </i>
    <i name="e_0_energy">   -103.38808552 </i>
   </energy>
  </scstep>
  <scstep>
   <time name="diag">    0.31    0.57</time>
   <time name="diis">    1.13    1.45</time>
   <time name="orth">    0.01    0.01</time>
   <time name="total">    2.59    4.36</time>
   <energy>
    <i name="alphaZ">      2.15216506 </i>
    <i name="ewald">   2556.05121901 </i>
    <i name="hartreedc">  -3689.70349765 </i>
    <i name="XCdc">    140.55446940 </i>
    <i name="pawpsdc">   3453.09960235 </i>
    <i name="pawaedc">  -3459.40463029 </i>
    <i name="eentropy">     -0.00000000 </i>
    <i name="bandstr">   -512.81068080 </i>
    <i name="atom">   1406.67326350 </i>
    <i name="e_fr_energy">   -103.38808942 </i>
    <i name="e_wo_entrp">   -103.38808942 </i>
    <i name="e_0_energy">   -103.38808942 </i>
   </energy>
  </scstep>
  <structure>
   <crystal>
    <varray name="basis" >
     <v>      15.40225029       0.00000000       0.00000000 </v>
     <v>       0.00000000      15.40225029       0.00000000 </v>
     <v>       0.00000000       0.00000000      15.40225029 </v>
    </varray>
    <i name="volume">   3653.86527022 </i>
    <varray name="rec_basis" >
     <v>       0.06492558       0.00000000       0.00000000 </v>
     <v>       0.00000000       0.06492558       0.00000000 </v>
     <v>       0.00000000       0.00000000       0.06492558 </v>
    </varray>
   </crystal>
   <varray name="positions" >
    <v>       0.33394780       0.44141313       0.56326930 </v>
    <v>       0.33341881       0.52806622       0.57033722 </v>
    <v>       0.41587094       0.57836716       0.55687113 </v>
    <v>       0.41652116       0.39251162       0.54667593 </v>
    <v>       0.48553906       0.44196432       0.49260761 </v>
    <v>       0.46460899       0.53907911       0.47819195 </v>
    <v>       0.54410447       0.58684897       0.45898831 </v>
    <v>       0.27442627       0.40377473       0.57161727 </v>
    <v>       0.44649088       0.37668641       0.60981290 </v>
    <v>       0.40230740       0.32962273       0.51618008 </v>
    <v>       0.27329942       0.56331002       0.58330806 </v>
    <v>       0.45899959       0.57369397       0.61398420 </v>
    <v>       0.40319742       0.64768734       0.54613253 </v>
    <v>       0.49349272       0.41125993       0.42881886 </v>
    <v>       0.54843947       0.43680476       0.52564939 </v>
    <v>       0.42146074       0.54525413       0.42139308 </v>
    <v>       0.60860613       0.62424962       0.44543823 </v>
   </varray>
  </structure>
  <varray name="forces" >
   <v>       0.00135897       0.00932775       0.00408983 </v>
   <v>       0.00001664      -0.02405500       0.00196044 </v>
   <v>       0.01857147       0.01646285      -0.01803936 </v>
   <v>       0.02154965      -0.03766251      -0.00939231 </v>
   <v>       0.03206434      -0.03540761      -0.00550423 </v>
   <v>      -0.00854385       0.01194713      -0.00702741 </v>
   <v>      -0.05945488      -0.00902504      -0.01599130 </v>
   <v>      -0.04166067       0.02317325       0.01063333 </v>
   <v>      -0.08485996      -0.06774538       0.07508994 </v>
   <v>      -0.02147563      -0.04677353      -0.01615523 </v>
   <v>      -0.00538976       0.00982675       0.03842952 </v>
   <v>      -0.03037815       0.04678950       0.05373006 </v>
   <v>      -0.00247023       0.02532885      -0.01379462 </v>
   <v>       0.03872081      -0.03429018      -0.05078460 </v>
   <v>       0.08984435       0.01859198      -0.00713666 </v>
   <v>      -0.01647057       0.03028145      -0.01680360 </v>
   <v>       0.06857747       0.06322973      -0.02330381 </v>
[...]
    <v>       0.27420568       0.40418456       0.57242502 </v>
    <v>       0.44644495       0.37778716       0.61003702 </v>
    <v>       0.40227700       0.32847184       0.51757862 </v>
    <v>       0.27374597       0.56317910       0.58488986 </v>
    <v>       0.45867464       0.57529022       0.61345030 </v>
    <v>       0.40258127       0.64768920       0.54434380 </v>
    <v>       0.48862913       0.41086003       0.42532451 </v>
    <v>       0.54900487       0.43456132       0.51934938 </v>
    <v>       0.42049082       0.54636715       0.42068984 </v>
    <v>       0.60753488       0.62497579       0.44317254 </v>
   </varray>
  </structure>
  <varray name="forces" >
   <v>       0.00022424       0.00070185       0.00199659 </v>
   <v>       0.00212309       0.00019892       0.00442564 </v>
   <v>      -0.00021244       0.00275316      -0.00160330 </v>
   <v>      -0.00418780      -0.00410115      -0.00591217 </v>
   <v>       0.00414738      -0.00056270       0.00480204 </v>
   <v>      -0.00055428      -0.00170019       0.00074188 </v>
   <v>       0.00941696       0.00837802      -0.00613607 </v>
   <v>      -0.00017437       0.00253060       0.00566096 </v>
   <v>      -0.00668230      -0.01827046      -0.00505452 </v>
   <v>      -0.01017797       0.00277438      -0.01547228 </v>
   <v>       0.00329924       0.00071487       0.00956024 </v>
   <v>       0.00160407       0.00964737      -0.00164232 </v>
   <v>      -0.00265395       0.00022972      -0.00761852 </v>
   <v>       0.01617989      -0.00104188       0.00462673 </v>
   <v>       0.00114116       0.00336020       0.01522278 </v>
   <v>       0.00069463      -0.00584050       0.00023267 </v>
   <v>      -0.01418754       0.00022778      -0.00383037 </v>
  </varray>
  <varray name="stress" >
   <v>      -0.84929351       0.00961130      -0.00036290 </v>
   <v>       0.00961130      -0.82051690       0.00275120 </v>
   <v>      -0.00036290       0.00275120      -0.86488439 </v>
  </varray>
  <energy>
   <i name="e_fr_energy">   -103.58661545 </i>
   <i name="e_wo_entrp">   -103.58661545 </i>
   <i name="e_0_energy">   -103.58661545 </i>
  </energy>
  <time name="totalsc">   21.39   28.98</time>
 </calculation>
 <calculation>
  <scstep>
   <time name="dav">    1.56    2.87</time>
   <time name="total">    2.96    4.85</time>
   <energy>
    <i name="alphaZ">      2.15216506 </i>
    <i name="ewald">   2547.39857420 </i>
    <i name="hartreedc">  -3681.36484557 </i>
    <i name="XCdc">    140.45814045 </i>
    <i name="pawpsdc">   3436.59905945 </i>
    <i name="pawaedc">  -3442.89623021 </i>
    <i name="eentropy">     -0.00000000 </i>
    <i name="bandstr">   -512.41068433 </i>
    <i name="atom">   1406.67326350 </i>
    <i name="e_fr_energy">   -103.39055744 </i>
    <i name="e_wo_entrp">   -103.39055744 </i>
    <i name="e_0_energy">   -103.39055744 </i>
   </energy>
  </scstep>
  <scstep>
   <time name="diag">    0.31    0.47</time>
   <time name="diis">    1.22    2.45</time>
   <time name="orth">    0.01    0.01</time>
   <time name="total">    3.38    5.90</time>
   <energy>
    <i name="e_fr_energy">   -103.39056488 </i>
    <i name="e_wo_entrp">   -103.39056488 </i>
    <i name="e_0_energy">   -103.39056488 </i>
   </energy>
  </scstep>
  <scstep>
   <time name="diag">    0.16    0.17</time>
   <time name="diis">    1.31    1.32</time>
   <time name="orth">    0.02    0.02</time>
   <time name="total">    3.10    3.58</time>
   <energy>
    <i name="alphaZ">      2.15216506 </i>
    <i name="ewald">   2547.39857420 </i>
    <i name="hartreedc">  -3681.38028936 </i>
    <i name="XCdc">    140.45914303 </i>
    <i name="pawpsdc">   3436.75916895 </i>
    <i name="pawaedc">  -3443.05662260 </i>
    <i name="eentropy">     -0.00000000 </i>
    <i name="bandstr">   -512.39597039 </i>
    <i name="atom">   1406.67326350 </i>
    <i name="e_fr_energy">   -103.39056760 </i>
    <i name="e_wo_entrp">   -103.39056760 </i>
    <i name="e_0_energy">   -103.39056760 </i>
   </energy>
  </scstep>
  <structure>
   <crystal>
    <varray name="basis" >
     <v>      15.40225029       0.00000000       0.00000000 </v>
     <v>       0.00000000      15.40225029       0.00000000 </v>
     <v>       0.00000000       0.00000000      15.40225029 </v>
    </varray>
    <i name="volume">   3653.86527022 </i>
    <varray name="rec_basis" >
     <v>       0.06492558       0.00000000       0.00000000 </v>
     <v>       0.00000000       0.06492558       0.00000000 </v>
     <v>       0.00000000       0.00000000       0.06492558 </v>
    </varray>
   </crystal>
   <varray name="positions" >
    <v>       0.33395435       0.44135875       0.56321744 </v>
    <v>       0.33362082       0.52800753       0.57043907 </v>
    <v>       0.41580100       0.57855974       0.55597810 </v>
    <v>       0.41653789       0.39221400       0.54637120 </v>
    <v>       0.48434959       0.44107032       0.48985803 </v>
    <v>       0.46411570       0.53896350       0.47704565 </v>
    <v>       0.54347256       0.58692511       0.45729113 </v>
    <v>       0.27420720       0.40419639       0.57246491 </v>
    <v>       0.44642027       0.37770532       0.60999733 </v>
    <v>       0.40222621       0.32848384       0.51750434 </v>
    <v>       0.27376504       0.56318120       0.58494501 </v>
    <v>       0.45868587       0.57534477       0.61342944 </v>
    <v>       0.40256316       0.64769082       0.54429250 </v>
    <v>       0.48867277       0.41085507       0.42533298 </v>
    <v>       0.54899667       0.43456496       0.51938587 </v>
    <v>       0.42048772       0.54634239       0.42067938 </v>
    <v>       0.60749473       0.62500331       0.44312517 </v>
   </varray>
  </structure>
  <varray name="forces" >
   <v>       0.00059001       0.00140497       0.00128099 </v>
   <v>       0.00276417       0.00040498       0.00365858 </v>
   <v>       0.00051337       0.00257168      -0.00229565 </v>
   <v>      -0.00393441      -0.00393352      -0.00582655 </v>
   <v>       0.00460494       0.00012417       0.00543503 </v>
   <v>       0.00316933       0.00014919      -0.00000762 </v>
   <v>      -0.02366380      -0.01109066       0.00116910 </v>
   <v>      -0.00012852       0.00253838       0.00613474 </v>
   <v>      -0.00653586      -0.01840995      -0.00555794 </v>
   <v>      -0.01038271       0.00285043      -0.01576425 </v>
   <v>       0.00341278       0.00081221       0.00978449 </v>
   <v>       0.00161964       0.00969726      -0.00194407 </v>
   <v>      -0.00271729       0.00045409      -0.00734624 </v>
   <v>       0.01626147      -0.00102773       0.00483570 </v>
   <v>       0.00108995       0.00378072       0.01559880 </v>
   <v>       0.00048121      -0.00575743       0.00042103 </v>
   <v>       0.01285573       0.01543123      -0.00957613 </v>
  </varray>
  <varray name="stress" >
   <v>      -0.84020744       0.01472687      -0.00180974 </v>
   <v>       0.01472687      -0.81774385       0.00168504 </v>
   <v>      -0.00180974       0.00168504      -0.86470601 </v>
  </varray>
  <energy>
   <i name="e_fr_energy">   -103.58674859 </i>
   <i name="e_wo_entrp">   -103.58674859 </i>
   <i name="e_0_energy">   -103.58674859 </i>
  </energy>
  <time name="totalsc">   18.38   26.08</time>
 </calculation>
 <calculation>
  <scstep>
   <time name="dav">    3.26    3.92</time>
   <time name="total">    5.56    6.63</time>
   <energy>
    <i name="alphaZ">      2.15216506 </i>
    <i name="ewald">   2547.42657792 </i>
    <i name="hartreedc">  -3681.42145928 </i>
    <i name="XCdc">    140.45893518 </i>
    <i name="pawpsdc">   3436.81577896 </i>
    <i name="pawaedc">  -3443.11326838 </i>
    <i name="eentropy">     -0.00000000 </i>
    <i name="bandstr">   -512.38248823 </i>
    <i name="atom">   1406.67326350 </i>
    <i name="e_fr_energy">   -103.39049527 </i>
    <i name="e_wo_entrp">   -103.39049527 </i>
    <i name="e_0_energy">   -103.39049527 </i>
   </energy>
  </scstep>
  <scstep>
   <time name="diag">    0.25    0.26</time>
   <time name="diis">    1.03    1.06</time>
   <time name="orth">    0.01    0.01</time>
   <time name="total">    2.83    3.23</time>
   <energy>
    <i name="alphaZ">      2.15216506 </i>
    <i name="ewald">   2547.42657792 </i>
    <i name="hartreedc">  -3681.41575700 </i>
    <i name="XCdc">    140.45848468 </i>
    <i name="pawpsdc">   3436.77734802 </i>
    <i name="pawaedc">  -3443.07473683 </i>
    <i name="eentropy">     -0.00000000 </i>
    <i name="bandstr">   -512.38784211 </i>
    <i name="atom">   1406.67326350 </i>
    <i name="e_fr_energy">   -103.39049678 </i>
    <i name="e_wo_entrp">   -103.39049678 </i>
    <i name="e_0_energy">   -103.39049678 </i>
   </energy>
  </scstep>
  <structure>
   <crystal>
    <varray name="basis" >
     <v>      15.40225029       0.00000000       0.00000000 </v>
     <v>       0.00000000      15.40225029       0.00000000 </v>
     <v>       0.00000000       0.00000000      15.40225029 </v>
    </varray>
    <i name="volume">   3653.86527022 </i>
    <varray name="rec_basis" >
     <v>       0.06492558       0.00000000       0.00000000 </v>
     <v>       0.00000000       0.06492558       0.00000000 </v>
     <v>       0.00000000       0.00000000       0.06492558 </v>
    </varray>
   </crystal>
   <varray name="positions" >
    <v>       0.33395271       0.44135696       0.56320728 </v>
    <v>       0.33361451       0.52800559       0.57042616 </v>
    <v>       0.41580027       0.57855441       0.55598609 </v>
    <v>       0.41654687       0.39222184       0.54638493 </v>
    <v>       0.48434737       0.44107279       0.48985504 </v>
    <v>       0.46411705       0.53896831       0.47705007 </v>
    <v>       0.54347172       0.58691969       0.45730639 </v>
    <v>       0.27420656       0.40419026       0.57244479 </v>
    <v>       0.44643321       0.37774705       0.61001770 </v>
    <v>       0.40225223       0.32847812       0.51754230 </v>
    <v>       0.27375527       0.56318022       0.58491696 </v>
    <v>       0.45868024       0.57531681       0.61344005 </v>
    <v>       0.40257250       0.64768986       0.54431893 </v>
    <v>       0.48865040       0.41085761       0.42532871 </v>
    <v>       0.54900092       0.43456328       0.51936722 </v>
    <v>       0.42048923       0.54635517       0.42068496 </v>
    <v>       0.60751681       0.62498956       0.44314949 </v>
   </varray>
  </structure>
  <varray name="forces" >
   <v>       0.00056088       0.00185702       0.00236435 </v>
   <v>       0.00360683       0.00097682       0.00401796 </v>
   <v>       0.00127789       0.00241661      -0.00261628 </v>
   <v>      -0.00405377      -0.00410955      -0.00494867 </v>
   <v>       0.00466115      -0.00033364       0.00633192 </v>
   <v>       0.00081324      -0.00279975       0.00044175 </v>
   <v>      -0.00016356       0.00309335      -0.00452055 </v>
   <v>      -0.00032577       0.00275387       0.00657952 </v>
   <v>      -0.00723772      -0.01930205      -0.00619333 </v>
   <v>      -0.01118721       0.00200908      -0.01641250 </v>
   <v>       0.00379306       0.00061244       0.01057907 </v>
   <v>       0.00159025       0.01035322      -0.00204563 </v>
   <v>      -0.00312575       0.00067424      -0.00791730 </v>
   <v>       0.01699866      -0.00127109       0.00543455 </v>
   <v>       0.00101197       0.00353169       0.01673660 </v>
   <v>       0.00047161      -0.00667312       0.00045147 </v>
   <v>      -0.00869174       0.00621086      -0.00828294 </v>
  </varray>
  <varray name="stress" >
   <v>      -0.84937786       0.01230402      -0.00256445 </v>
   <v>       0.01230402      -0.81987235       0.00229753 </v>
   <v>      -0.00256445       0.00229753      -0.86673580 </v>
  </varray>
  <energy>
   <i name="e_fr_energy">   -103.58668236 </i>
   <i name="e_wo_entrp">   -103.58668236 </i>
   <i name="e_0_energy">   -103.58668236 </i>
  </energy>
  <time name="totalsc">   17.12   21.37</time>
 </calculation>
 <calculation>
  <scstep>
   <time name="dav">    1.24    1.74</time>
   <time name="total">    2.59    3.84</time>
   <energy>
    <i name="alphaZ">      2.15216506 </i>
    <i name="ewald">   2547.39808572 </i>
    <i name="hartreedc">  -3681.38554729 </i>
    <i name="XCdc">    140.45801803 </i>
    <i name="pawpsdc">   3436.71589745 </i>
    <i name="pawaedc">  -3443.01319260 </i>
    <i name="eentropy">     -0.00000000 </i>
    <i name="bandstr">   -512.38922527 </i>
    <i name="atom">   1406.67326350 </i>
    <i name="e_fr_energy">   -103.39053539 </i>
    <i name="e_wo_entrp">   -103.39053539 </i>
    <i name="e_0_energy">   -103.39053539 </i>
   </energy>
  </scstep>
  <scstep>
   <time name="diag">    0.18    0.20</time>
   <time name="diis">    0.82    0.87</time>
   <time name="orth">    0.01    0.01</time>
   <time name="total">    1.90    1.99</time>
   <energy>
    <i name="alphaZ">      2.15216506 </i>
    <i name="ewald">   2547.39808572 </i>
    <i name="hartreedc">  -3681.38382778 </i>
    <i name="XCdc">    140.45791970 </i>
    <i name="pawpsdc">   3436.67696961 </i>
    <i name="pawaedc">  -3442.97422721 </i>
    <i name="eentropy">     -0.00000000 </i>
    <i name="bandstr">   -512.39088481 </i>
    <i name="atom">   1406.67326350 </i>
    <i name="e_fr_energy">   -103.39053622 </i>
    <i name="e_wo_entrp">   -103.39053622 </i>
    <i name="e_0_energy">   -103.39053622 </i>
   </energy>
  </scstep>
  <structure>
   <crystal>
    <varray name="basis" >
     <v>      15.40225029       0.00000000       0.00000000 </v>
     <v>       0.00000000      15.40225029       0.00000000 </v>
     <v>       0.00000000       0.00000000      15.40225029 </v>
    </varray>
    <i name="volume">   3653.86527022 </i>
    <varray name="rec_basis" >
     <v>       0.06492558       0.00000000       0.00000000 </v>
     <v>       0.00000000       0.06492558       0.00000000 </v>
     <v>       0.00000000       0.00000000       0.06492558 </v>
    </varray>
   </crystal>
   <varray name="positions" >
    <v>       0.33395375       0.44135838       0.56321211 </v>
    <v>       0.33361837       0.52800652       0.57043238 </v>
    <v>       0.41580092       0.57855734       0.55598131 </v>
    <v>       0.41654216       0.39221753       0.54637757 </v>
    <v>       0.48434872       0.44107160       0.48985697 </v>
    <v>       0.46411672       0.53896577       0.47704751 </v>
    <v>       0.54346678       0.58692000       0.45729893 </v>
    <v>       0.27420703       0.40419331       0.57245570 </v>
    <v>       0.44642702       0.37772574       0.61000699 </v>
    <v>       0.40223888       0.32848115       0.51752296 </v>
    <v>       0.27376036       0.56318076       0.58493168 </v>
    <v>       0.45868323       0.57533107       0.61343435 </v>
    <v>       0.40256768       0.64769035       0.54430566 </v>
    <v>       0.48866137       0.41085624       0.42533106 </v>
    <v>       0.54899863       0.43456424       0.51937666 </v>
    <v>       0.42048822       0.54634863       0.42068239 </v>
    <v>       0.60750857       0.62499865       0.44313561 </v>
   </varray>
  </structure>
  <varray name="forces" >
   <v>       0.00026791       0.00100762       0.00141982 </v>
   <v>       0.00235027       0.00121589       0.00349702 </v>
   <v>       0.00066396       0.00198820      -0.00186859 </v>
   <v>      -0.00371975      -0.00303719      -0.00492993 </v>
   <v>       0.00406778      -0.00032510       0.00518164 </v>
   <v>       0.00011705      -0.00198286       0.00072080 </v>
   <v>       0.00515199       0.00500780      -0.00422296 </v>
   <v>      -0.00017788       0.00287633       0.00613261 </v>
   <v>      -0.00702863      -0.01877302      -0.00592656 </v>
   <v>      -0.01093711       0.00253393      -0.01638957 </v>
   <v>       0.00381606       0.00060605       0.00985787 </v>
   <v>       0.00147394       0.01007283      -0.00229705 </v>
   <v>      -0.00303739       0.00063050      -0.00793549 </v>
   <v>       0.01651206      -0.00100954       0.00490369 </v>
   <v>       0.00108758       0.00373445       0.01594697 </v>
   <v>       0.00012433      -0.00620756       0.00011170 </v>
   <v>      -0.01073218       0.00166165      -0.00420196 </v>
  </varray>
  <varray name="stress" >
   <v>      -0.84905526       0.01034365      -0.00066166 </v>
   <v>       0.01034365      -0.82001841       0.00268354 </v>
   <v>      -0.00066166       0.00268354      -0.86578920 </v>
  </varray>
  <energy>
   <i name="e_fr_energy">   -103.58671840 </i>
   <i name="e_wo_entrp">   -103.58671840 </i>
   <i name="e_0_energy">   -103.58671840 </i>
  </energy>
  <time name="totalsc">   13.74   18.62</time>
  <eigenvalues>
   <array>
    <dimension dim="1">band</dimension>
    <dimension dim="2">kpoint</dimension>
    <dimension dim="3">spin</dimension>
    <field>eigene</field>
    <field>occ</field>
    <set>
     <set comment="spin 1">
      <set comment="kpoint 1">
       <r>  -22.2604    1.0000 </r>
       <r>  -21.1394    1.0000 </r>
       <r>  -19.1096    1.0000 </r>
       <r>  -18.6636    1.0000 </r>
       <r>  -15.9766    1.0000 </r>
       <r>  -15.4299    1.0000 </r>
       <r>  -12.9922    1.0000 </r>
       <r>  -12.8300    1.0000 </r>
       <r>  -12.2013    1.0000 </r>
       <r>  -10.8239    1.0000 </r>
       <r>  -10.5351    1.0000 </r>
       <r>  -10.3313    1.0000 </r>
       <r>   -9.8508    1.0000 </r>
       <r>   -9.5408    1.0000 </r>
       <r>   -8.7357    1.0000 </r>
       <r>   -8.4861    1.0000 </r>
       <r>   -8.2558    1.0000 </r>
       <r>   -7.8293    1.0000 </r>
       <r>   -7.5849    1.0000 </r>
       <r>   -7.4785    1.0000 </r>
       <r>   -6.1401    1.0000 </r>
       <r>   -0.9901    0.0000 </r>
       <r>   -0.6937    0.0000 </r>
       <r>   -0.1882    0.0000 </r>
       <r>   -0.1323    0.0000 </r>
       <r>   -0.0191    0.0000 </r>
       <r>    0.0838    0.0000 </r>
       <r>    0.1803    0.0000 </r>
       <r>    0.3730    0.0000 </r>
       <r>    0.4671    0.0000 </r>
      </set>
     </set>
    </set>
   </array>
  </eigenvalues>
  <separator name="orbital magnetization" >
   <v name="MAGDIPOLOUT">      0.00000000      0.00000000      0.00000000</v>
  </separator>
 </calculation>
 <structure name="finalpos" >
  <crystal>
   <varray name="basis" >
    <v>      15.40225029       0.00000000       0.00000000 </v>
    <v>       0.00000000      15.40225029       0.00000000 </v>
    <v>       0.00000000       0.00000000      15.40225029 </v>
   </varray>
   <i name="volume">   3653.86527022 </i>
   <varray name="rec_basis" >
    <v>       0.06492558       0.00000000       0.00000000 </v>
    <v>       0.00000000       0.06492558       0.00000000 </v>
    <v>       0.00000000       0.00000000       0.06492558 </v>
   </varray>
  </crystal>
  <varray name="positions" >
   <v>       0.33395375       0.44135838       0.56321211 </v>
   <v>       0.33361837       0.52800652       0.57043238 </v>
   <v>       0.41580092       0.57855734       0.55598131 </v>
   <v>       0.41654216       0.39221753       0.54637757 </v>
   <v>       0.48434872       0.44107160       0.48985697 </v>
   <v>       0.46411672       0.53896577       0.47704751 </v>
   <v>       0.54346678       0.58692000       0.45729893 </v>
   <v>       0.27420703       0.40419331       0.57245570 </v>
   <v>       0.44642702       0.37772574       0.61000699 </v>
   <v>       0.40223888       0.32848115       0.51752296 </v>
   <v>       0.27376036       0.56318076       0.58493168 </v>
   <v>       0.45868323       0.57533107       0.61343435 </v>
   <v>       0.40256768       0.64769035       0.54430566 </v>
   <v>       0.48866137       0.41085624       0.42533106 </v>
   <v>       0.54899863       0.43456424       0.51937666 </v>
   <v>       0.42048822       0.54634863       0.42068239 </v>
   <v>       0.60750857       0.62499865       0.44313561 </v>
  </varray>
 </structure>
</modeling>
