   18   18 5000    1
  0.1875000E+03  0.1500000E-08  0.1500000E-08  0.1500000E-08  0.1000000E-15
  1.000000000000000E-004
  CAR 
 unknown system                          
     50      1     35
 
  0.0000000E+00  0.0000000E+00  0.0000000E+00  0.1000000E+01
      1        -22.974418   1.000000
      2        -22.825243   1.000000
      3        -20.990380   1.000000
      4        -20.119052   1.000000
      5        -18.168465   1.000000
      6        -17.701488   1.000000
      7        -15.483105   1.000000
      8        -13.936594   1.000000
      9        -13.453778   1.000000
     10        -13.058420   1.000000
     11        -12.207984   1.000000
     12        -11.191637   1.000000
     13        -10.892317   1.000000
     14        -10.268979   1.000000
     15        -10.177545   1.000000
     16         -9.138720   1.000000
     17         -8.927707   1.000000
     18         -8.778242   1.000000
     19         -8.766567   1.000000
     20         -8.592841   1.000000
     21         -8.569945   1.000000
     22         -8.414068   1.000000
     23         -8.157332   1.000000
     24         -7.163133   1.000000
     25         -6.012625   1.000000
     26         -3.521022   0.000000
     27         -2.415265   0.000000
     28         -1.050799   0.000000
     29         -0.839664   0.000000
     30         -0.341553   0.000000
     31         -0.109093   0.000000
     32          0.091714   0.000000
     33          0.248425   0.000000
     34          0.412942   0.000000
     35          0.499947   0.000000
