unknown system                          
           1
    15.000000    0.000000    0.000000
     0.000000   15.000000    0.000000
     0.000000    0.000000   15.000000
   C    H    N 
     8     8     2
Direct configuration=     1
   0.38421029  0.53327247  0.60143138
   0.39803760  0.43904144  0.60947260
   0.47838170  0.40053820  0.62296595
   0.44678748  0.59493526  0.62053758
   0.52864889  0.52572376  0.45309411
   0.52322646  0.43509762  0.45880084
   0.59332452  0.57441366  0.50042553
   0.44751296  0.38531993  0.43228303
   0.34237510  0.39844955  0.58813981
   0.53792122  0.44063938  0.63003800
   0.48777472  0.32853926  0.62405555
   0.32178006  0.55445289  0.57081719
   0.51304209  0.57433063  0.64397700
   0.43480638  0.66630429  0.61476734
   0.48264647  0.56327435  0.41204853
   0.58056762  0.39876394  0.48412783
   0.64264036  0.61690323  0.54358809
   0.38623379  0.33916348  0.41770931
Direct configuration=     2
   0.38430584  0.53372757  0.60180710
   0.39837086  0.43889038  0.60952349
   0.47837481  0.40044255  0.62284117
   0.44690333  0.59496989  0.62106052
   0.52853782  0.52519202  0.45183355
   0.52301332  0.43509650  0.45785758
   0.59318034  0.57422525  0.49985641
   0.44690628  0.38498144  0.43182783
   0.34211634  0.39829652  0.58874452
   0.53835050  0.44078679  0.62958421
   0.48786419  0.32854743  0.62383985
   0.32140492  0.55463804  0.57182708
   0.51301785  0.57444415  0.64409275
   0.43483005  0.66639504  0.61520991
   0.48239337  0.56317054  0.41104396
   0.58015143  0.39815598  0.48333293
   0.64207411  0.61650550  0.54364735
   0.38529189  0.33910619  0.41784335
Direct configuration=     3
   0.38436051  0.53394036  0.60214763
   0.39845965  0.43888773  0.60952520
   0.47860576  0.40040307  0.62275709
   0.44697700  0.59512646  0.62154194
   0.52849602  0.52498662  0.45068844
   0.52276712  0.43478939  0.45692957
   0.59296573  0.57394706  0.49920088
   0.44639792  0.38472122  0.43138223
   0.34194027  0.39819264  0.58936022
   0.53865209  0.44084472  0.62915115
   0.48795126  0.32852040  0.62363661
   0.32107476  0.55482395  0.57280535
   0.51305064  0.57453945  0.64423396
   0.43486428  0.66646912  0.61564718
   0.48216172  0.56304255  0.41011856
   0.57969893  0.39762171  0.48257481
   0.64154614  0.61613334  0.54369940
   0.38440157  0.33905483  0.41796874
Direct configuration=     4
   0.38443925  0.53424717  0.60271033
   0.39865338  0.43889142  0.60955016
   0.47893652  0.40039321  0.62259237
   0.44705363  0.59536941  0.62232396
   0.52841962  0.52459542  0.44881288
   0.52234061  0.43431223  0.45535058
   0.59270944  0.57354995  0.49815100
   0.44549864  0.38424986  0.43059556
   0.34166942  0.39802794  0.59040981
   0.53914170  0.44091890  0.62843935
   0.48810358  0.32845859  0.62330101
   0.32054662  0.55514017  0.57445609
   0.51313308  0.57470382  0.64449204
   0.43491983  0.66662133  0.61638982
   0.48176452  0.56282690  0.40857915
   0.57892804  0.39673530  0.48131637
   0.64056570  0.61541205  0.54367189
   0.38298140  0.33902326  0.41818353
Direct configuration=     5
   0.38457981  0.53482750  0.60404045
   0.39917626  0.43893624  0.60967148
   0.47961902  0.40048773  0.62212460
   0.44709838  0.59589039  0.62412074
   0.52824171  0.52358911  0.44447614
   0.52125697  0.43322999  0.45147810
   0.59206840  0.57249355  0.49544488
   0.44340199  0.38316868  0.42860416
   0.34113304  0.39767717  0.59300879
   0.54025014  0.44101136  0.62678749
   0.48848108  0.32829711  0.62251307
   0.31937017  0.55590974  0.57846208
   0.51340235  0.57512548  0.64518773
   0.43504259  0.66707755  0.61820946
   0.48080083  0.56228867  0.40495299
   0.57701061  0.39464953  0.47833205
   0.63820486  0.61361402  0.54348126
   0.37964030  0.33900291  0.41866768
Direct configuration=     6
   0.38453351  0.53473417  0.60382460
   0.39912098  0.43895923  0.60960602
   0.47957057  0.40053326  0.62208793
   0.44702653  0.59584527  0.62392901
   0.52830169  0.52368834  0.44497578
   0.52139727  0.43332354  0.45183592
   0.59216979  0.57255840  0.49570226
   0.44372687  0.38326690  0.42874575
   0.34125745  0.39769619  0.59284875
   0.54013798  0.44100703  0.62692587
   0.48848330  0.32836028  0.62254018
   0.31953351  0.55586305  0.57800868
   0.51333386  0.57515553  0.64528569
   0.43504353  0.66710074  0.61799223
   0.48090589  0.56233258  0.40540250
   0.57714532  0.39484673  0.47876122
   0.63838083  0.61372450  0.54361190
   0.38005953  0.33904005  0.41867408
Direct configuration=     7
   0.38451603  0.53471269  0.60356395
   0.39916162  0.43901249  0.60944389
   0.47959290  0.40064773  0.62189591
   0.44689214  0.59588807  0.62387419
   0.52840144  0.52369087  0.44522076
   0.52158794  0.43334956  0.45190176
   0.59233956  0.57251823  0.49581145
   0.44412509  0.38325879  0.42864919
   0.34138397  0.39759785  0.59303343
   0.54014740  0.44106213  0.62690660
   0.48857665  0.32849403  0.62241259
   0.31961876  0.55593633  0.57770099
   0.51313571  0.57536040  0.64572906
   0.43507585  0.66722526  0.61781411
   0.48094087  0.56234178  0.40576375
   0.57706933  0.39485470  0.47924166
   0.63831676  0.61360814  0.54397252
   0.38034791  0.33909610  0.41879780
Direct configuration=     8
   0.38451137  0.53474259  0.60322083
   0.39925684  0.43909855  0.60919455
   0.47969131  0.40083168  0.62156454
   0.44669118  0.59601431  0.62390159
   0.52856224  0.52363972  0.44534418
   0.52186337  0.43333040  0.45178917
   0.59256712  0.57238159  0.49584443
   0.44459351  0.38314746  0.42836150
   0.34154278  0.39740447  0.59348801
   0.54023731  0.44117039  0.62677272
   0.48875037  0.32870305  0.62215321
   0.31967318  0.55610221  0.57741422
   0.51280131  0.57572674  0.64650587
   0.43512808  0.66743594  0.61762435
   0.48093840  0.56232791  0.40614641
   0.57684667  0.39474028  0.47986189
   0.63809572  0.61331877  0.54456996
   0.38066295  0.33920475  0.41902430
Direct configuration=     9
   0.38448284  0.53467508  0.60267116
   0.39920789  0.43915909  0.60898941
   0.47966230  0.40095799  0.62140242
   0.44653056  0.59603603  0.62355867
   0.52874999  0.52381665  0.44632979
   0.52232771  0.43352388  0.45251199
   0.59287126  0.57248392  0.49647309
   0.44541851  0.38330919  0.42854412
   0.34178224  0.39732159  0.59331552
   0.54008440  0.44125252  0.62699530
   0.48881362  0.32890741  0.62210115
   0.31996126  0.55607229  0.57631426
   0.51244685  0.57594250  0.64701271
   0.43512766  0.66749666  0.61708579
   0.48114167  0.56242716  0.40722329
   0.57708854  0.39508398  0.48100013
   0.63842187  0.61344668  0.54509835
   0.38160558  0.33926997  0.41908613
Direct configuration=    10
   0.38449203  0.53470959  0.60222134
   0.39922926  0.43921350  0.60881008
   0.47968153  0.40109068  0.62125309
   0.44640396  0.59612538  0.62336858
   0.52896126  0.52391950  0.44697472
   0.52274875  0.43365325  0.45298668
   0.59312816  0.57253282  0.49697689
   0.44609028  0.38339227  0.42860482
   0.34191876  0.39718085  0.59329845
   0.54004254  0.44137966  0.62710509
   0.48889698  0.32906966  0.62199416
   0.32013490  0.55609210  0.57544213
   0.51206819  0.57618794  0.64757221
   0.43511532  0.66756353  0.61664668
   0.48125226  0.56251541  0.40804782
   0.57725872  0.39526862  0.48195389
   0.63864905  0.61347998  0.54565530
   0.38229897  0.33929582  0.41914429
Direct configuration=    11
   0.38449723  0.53472016  0.60190815
   0.39921234  0.43924085  0.60871682
   0.47966670  0.40115715  0.62122559
   0.44633699  0.59616169  0.62318246
   0.52910986  0.52403340  0.44753758
   0.52305505  0.43377917  0.45346292
   0.59330979  0.57263613  0.49744584
   0.44654205  0.38347961  0.42875028
   0.34199811  0.39711563  0.59313981
   0.53997630  0.44146370  0.62725260
   0.48891961  0.32915228  0.62197857
   0.32028502  0.55605799  0.57472387
   0.51183187  0.57629781  0.64784961
   0.43508772  0.66757113  0.61629485
   0.48135356  0.56260406  0.40869220
   0.57748827  0.39547664  0.48264314
   0.63892505  0.61359724  0.54597817
   0.38286920  0.33930324  0.41912756
Direct configuration=    12
   0.38451100  0.53479081  0.60149599
   0.39922816  0.43929784  0.60855179
   0.47972372  0.40128499  0.62113026
   0.44620913  0.59628175  0.62306155
   0.52936057  0.52412927  0.44803892
   0.52347126  0.43386835  0.45385788
   0.59355713  0.57269726  0.49795798
   0.44713347  0.38351377  0.42878708
   0.34208338  0.39696555  0.59316329
   0.53998765  0.44162429  0.62732634
   0.48900455  0.32928330  0.62186033
   0.32042518  0.55608673  0.57391302
   0.51145151  0.57654166  0.64843179
   0.43505540  0.66765345  0.61587263
   0.48142240  0.56270072  0.40941901
   0.57767283  0.39560328  0.48352331
   0.63915221  0.61360771  0.54655230
   0.38348199  0.33930427  0.41915067
Direct configuration=    13
   0.38451650  0.53485408  0.60121846
   0.39924820  0.43933786  0.60844305
   0.47977519  0.40138654  0.62108528
   0.44610635  0.59638601  0.62302044
   0.52957014  0.52418624  0.44831128
   0.52377153  0.43390967  0.45408257
   0.59372562  0.57273997  0.49832460
   0.44752300  0.38350754  0.42879445
   0.34212586  0.39685876  0.59322041
   0.54002889  0.44176063  0.62734959
   0.48907283  0.32936816  0.62176415
   0.32051396  0.55611657  0.57336735
   0.51116993  0.57672535  0.64888608
   0.43501929  0.66773469  0.61557805
   0.48145521  0.56276888  0.40988472
   0.57780400  0.39565710  0.48411079
   0.63930722  0.61358953  0.54699120
   0.38387591  0.33929104  0.41914745
Direct configuration=    14
   0.38452078  0.53491739  0.60098969
   0.39927220  0.43937770  0.60835258
   0.47983697  0.40148648  0.62104986
   0.44599679  0.59649378  0.62302530
   0.52977709  0.52421953  0.44847325
   0.52403764  0.43392429  0.45421425
   0.59387088  0.57276831  0.49863580
   0.44784217  0.38347343  0.42877187
   0.34216021  0.39676746  0.59332549
   0.54008996  0.44189503  0.62733429
   0.48914538  0.32945000  0.62166315
   0.32058349  0.55615655  0.57292517
   0.51090717  0.57690559  0.64933720
   0.43497907  0.66783030  0.61533126
   0.48147840  0.56281857  0.41024640
   0.57789989  0.39566838  0.48458838
   0.63941097  0.61353011  0.54740575
   0.38418648  0.33927500  0.41913731
Direct configuration=    15
   0.38452552  0.53501451  0.60059711
   0.39931022  0.43944629  0.60820892
   0.47993183  0.40165697  0.62099973
   0.44580637  0.59667159  0.62301943
   0.53013417  0.52428337  0.44879053
   0.52449675  0.43395954  0.45447205
   0.59410773  0.57281633  0.49918160
   0.44841235  0.38343522  0.42876011
   0.34222775  0.39662706  0.59347706
   0.54017876  0.44212089  0.62732151
   0.48926511  0.32959574  0.62150503
   0.32071818  0.55621404  0.57213585
   0.51045558  0.57720660  0.65009547
   0.43490482  0.66798840  0.61489696
   0.48153864  0.56290275  0.41088930
   0.57808454  0.39571090  0.48541031
   0.63961751  0.61344952  0.54811580
   0.38473578  0.33923923  0.41910480
Direct configuration=    16
   0.38452692  0.53506036  0.60039239
   0.39933229  0.43948515  0.60813923
   0.47997860  0.40174999  0.62096965
   0.44570187  0.59676441  0.62301544
   0.53032084  0.52431439  0.44896704
   0.52474009  0.43397979  0.45460891
   0.59423548  0.57284112  0.49947378
   0.44871117  0.38341277  0.42875476
   0.34227265  0.39656172  0.59355818
   0.54021883  0.44223725  0.62731225
   0.48933046  0.32968209  0.62142477
   0.32079690  0.55624263  0.57171404
   0.51020982  0.57736923  0.65050025
   0.43486372  0.66807183  0.61466820
   0.48158467  0.56294045  0.41123167
   0.57817971  0.39573890  0.48583706
   0.63971700  0.61339672  0.54848846
   0.38504232  0.33922773  0.41908688
Direct configuration=    17
   0.38452824  0.53512979  0.60011136
   0.39936789  0.43954564  0.60805102
   0.48005268  0.40189126  0.62093542
   0.44553903  0.59690708  0.62303354
   0.53060626  0.52435001  0.44918592
   0.52509150  0.43399728  0.45477474
   0.59440879  0.57286647  0.49988991
   0.44914030  0.38337470  0.42874065
   0.34233750  0.39647784  0.59369877
   0.54028635  0.44241350  0.62727953
   0.48943119  0.32981357  0.62130686
   0.32091237  0.55628664  0.57111888
   0.50984051  0.57761353  0.65110978
   0.43479486  0.66820292  0.61434371
   0.48165919  0.56298641  0.41169815
   0.57831434  0.39576509  0.48641992
   0.63985224  0.61330122  0.54904641
   0.38546113  0.33920007  0.41904615
Direct configuration=    18
   0.38453023  0.53521262  0.59977511
   0.39941453  0.43963105  0.60796505
   0.48014177  0.40207620  0.62089774
   0.44532185  0.59708782  0.62306424
   0.53096958  0.52438677  0.44947354
   0.52553369  0.43401863  0.45497985
   0.59461945  0.57288720  0.50041839
   0.44968484  0.38333211  0.42873086
   0.34243371  0.39639846  0.59387684
   0.54035980  0.44263484  0.62722914
   0.48956255  0.32999759  0.62117250
   0.32107753  0.55633324  0.57035767
   0.50935032  0.57792982  0.65188761
   0.43469612  0.66836534  0.61393807
   0.48179046  0.56302860  0.41227634
   0.57848969  0.39580760  0.48711590
   0.64001464  0.61316366  0.54975740
   0.38600757  0.33916632  0.41897635
Direct configuration=    19
   0.38453224  0.53528978  0.59947895
   0.39945866  0.43971715  0.60790434
   0.48022197  0.40225146  0.62086915
   0.44511461  0.59725834  0.62309969
   0.53130613  0.52441496  0.44974531
   0.52594041  0.43403752  0.45516741
   0.59481406  0.57290086  0.50091396
   0.45018615  0.38329542  0.42872518
   0.34252723  0.39634141  0.59404045
   0.54042293  0.44284172  0.62717682
   0.48968645  0.33017584  0.62106055
   0.32124252  0.55636875  0.56964840
   0.50888151  0.57822697  0.65261046
   0.43459560  0.66851146  0.61356771
   0.48193554  0.56305911  0.41279714
   0.57866053  0.39585058  0.48772807
   0.64015596  0.61302265  0.55041458
   0.38652227  0.33913458  0.41889800
Direct configuration=    20
   0.38453542  0.53540114  0.59906048
   0.39952079  0.43984434  0.60782645
   0.48033488  0.40250420  0.62083127
   0.44481551  0.59750312  0.62315040
   0.53178759  0.52445543  0.45014830
   0.52652235  0.43406552  0.45544288
   0.59508614  0.57290958  0.50162025
   0.45091357  0.38325214  0.42872134
   0.34266322  0.39626755  0.59426930
   0.54050922  0.44313926  0.62710312
   0.48986425  0.33043434  0.62090938
   0.32148707  0.55641363  0.56862404
   0.50820153  0.57865476  0.65364469
   0.43444694  0.66871694  0.61303823
   0.48215688  0.56310015  0.41354040
   0.57891359  0.39591686  0.48859279
   0.64036427  0.61282383  0.55136270
   0.38726368  0.33908509  0.41877758
Direct configuration=    21
   0.38453719  0.53545180  0.59890026
   0.39954599  0.43991003  0.60782021
   0.48038018  0.40261956  0.62082616
   0.44467828  0.59761294  0.62318194
   0.53199521  0.52446839  0.45033936
   0.52677379  0.43407660  0.45556763
   0.59520384  0.57290136  0.50193623
   0.45122561  0.38323866  0.42872470
   0.34272683  0.39626004  0.59436219
   0.54053931  0.44327342  0.62706672
   0.48994371  0.33055615  0.62086679
   0.32161432  0.55641864  0.56816754
   0.50788040  0.57884795  0.65409438
   0.43436794  0.66879888  0.61281565
   0.48228972  0.56310737  0.41384207
   0.57904194  0.39595236  0.48892030
   0.64044713  0.61272300  0.55177695
   0.38760541  0.33906354  0.41870288
Direct configuration=    22
   0.38454122  0.53557471  0.59847287
   0.39961009  0.44005784  0.60776561
   0.48049738  0.40289721  0.62079958
   0.44434904  0.59788079  0.62324523
   0.53250920  0.52450776  0.45079401
   0.52739711  0.43410693  0.45587446
   0.59549907  0.57289800  0.50270878
   0.45200825  0.38320134  0.42872625
   0.34287473  0.39620613  0.59459763
   0.54062512  0.44360073  0.62698602
   0.49013631  0.33084196  0.62073271
   0.32190019  0.55644971  0.56705113
   0.50712362  0.57931513  0.65520451
   0.43419216  0.66901189  0.61225467
   0.48256676  0.56314311  0.41461713
   0.57934043  0.39603001  0.48979899
   0.64066449  0.61249597  0.55279737
   0.38842099  0.33900668  0.41854785
Direct configuration=    23
   0.38454598  0.53570154  0.59808416
   0.39966822  0.44022149  0.60775784
   0.48060589  0.40318301  0.62079768
   0.44401035  0.59815382  0.62332352
   0.53301437  0.52454186  0.45128248
   0.52801374  0.43413683  0.45619870
   0.59579289  0.57286938  0.50349403
   0.45278837  0.38317922  0.42873757
   0.34302419  0.39619509  0.59481358
   0.54069819  0.44393881  0.62690510
   0.49032942  0.33113941  0.62064820
   0.32222445  0.55645142  0.56591619
   0.50632463  0.57979286  0.65630243
   0.43399149  0.66921076  0.61171108
   0.48290668  0.56316595  0.41534768
   0.57968177  0.39611776  0.49058773
   0.64087703  0.61225406  0.55382104
   0.38926558  0.33894464  0.41835091
Direct configuration=    24
   0.38454992  0.53578562  0.59785383
   0.39970096  0.44033565  0.60777888
   0.48067049  0.40337324  0.62081648
   0.44378209  0.59833515  0.62338217
   0.53333552  0.52456240  0.45162328
   0.52840975  0.43415802  0.45642576
   0.59598943  0.57283816  0.50401836
   0.45329365  0.38317268  0.42874973
   0.34311634  0.39621308  0.59493774
   0.54073825  0.44416806  0.62685844
   0.49045292  0.33133725  0.62063091
   0.32246024  0.55643217  0.56516619
   0.50578192  0.58010944  0.65700433
   0.43384557  0.66933315  0.61137046
   0.48316461  0.56317852  0.41579058
   0.57993999  0.39617784  0.49104376
   0.64101552  0.61209078  0.55448679
   0.38983422  0.33890021  0.41819475
Direct configuration=    25
   0.38454986  0.53577737  0.59789281
   0.39969454  0.44032935  0.60779546
   0.48065977  0.40335733  0.62082973
   0.44379837  0.59832020  0.62338178
   0.53329875  0.52455945  0.45160513
   0.52836587  0.43415668  0.45641366
   0.59597058  0.57283006  0.50397223
   0.45324503  0.38318079  0.42875227
   0.34310325  0.39622939  0.59491398
   0.54072861  0.44415174  0.62686803
   0.49043895  0.33132096  0.62066047
   0.32245371  0.55641975  0.56523315
   0.50582142  0.58008184  0.65692624
   0.43384880  0.66931706  0.61141402
   0.48316540  0.56317587  0.41572279
   0.57994062  0.39617345  0.49095663
   0.64100469  0.61210491  0.55442268
   0.38978757  0.33889959  0.41818933
Direct configuration=    26
   0.38455045  0.53579986  0.59783788
   0.39970161  0.44036358  0.60781247
   0.48067472  0.40341175  0.62084612
   0.44372882  0.59837271  0.62340120
   0.53338589  0.52456483  0.45170865
   0.52847381  0.43416343  0.45648262
   0.59602743  0.57281604  0.50412244
   0.45338601  0.38318254  0.42875689
   0.34312514  0.39624494  0.59494164
   0.54073573  0.44421944  0.62685996
   0.49047141  0.33137775  0.62067450
   0.32252835  0.55640540  0.56501939
   0.50566375  0.58017187  0.65711776
   0.43380027  0.66935039  0.61132508
   0.48325291  0.56317926  0.41583076
   0.58003026  0.39618987  0.49105720
   0.64104645  0.61205869  0.55460956
   0.38995372  0.33888508  0.41813144
Direct configuration=    27
   0.38455596  0.53598789  0.59741413
   0.39975265  0.44067840  0.60803863
   0.48079352  0.40390478  0.62106984
   0.44307946  0.59885998  0.62360023
   0.53413808  0.52461636  0.45268327
   0.52940978  0.43422689  0.45713821
   0.59654392  0.57265494  0.50549128
   0.45463300  0.38321465  0.42880683
   0.34329103  0.39646124  0.59513731
   0.54077370  0.44485166  0.62682651
   0.49074896  0.33189474  0.62094181
   0.32324781  0.55621831  0.56309688
   0.50424026  0.58098288  0.65878699
   0.43331531  0.66965137  0.61058586
   0.48414345  0.56321525  0.41667155
   0.58095793  0.39633215  0.49175579
   0.64142681  0.61163298  0.55625529
   0.39145238  0.33872838  0.41751859
Direct configuration=    28
   0.38455136  0.53595921  0.59746595
   0.39974589  0.44062323  0.60799296
   0.48077646  0.40382745  0.62103790
   0.44318191  0.59878444  0.62357211
   0.53403069  0.52461128  0.45252458
   0.52927162  0.43421592  0.45703130
   0.59645855  0.57267976  0.50527022
   0.45444393  0.38320148  0.42879361
   0.34326192  0.39641858  0.59511397
   0.54076839  0.44475426  0.62684018
   0.49070493  0.33181395  0.62090123
   0.32312719  0.55625134  0.56339324
   0.50446711  0.58086064  0.65853905
   0.43338939  0.66961587  0.61069559
   0.48399637  0.56321647  0.41655052
   0.58081328  0.39630531  0.49166257
   0.64138472  0.61170817  0.55601615
   0.39122139  0.33875442  0.41761308
Direct configuration=    29
   0.38455068  0.53599175  0.59738865
   0.39975370  0.44067503  0.60803115
   0.48079583  0.40391292  0.62108569
   0.44306634  0.59887042  0.62361024
   0.53416490  0.52462147  0.45269192
   0.52943775  0.43422607  0.45714442
   0.59655599  0.57265747  0.50551465
   0.45466463  0.38320436  0.42879939
   0.34328589  0.39645583  0.59514870
   0.54077256  0.44486656  0.62684408
   0.49075103  0.33190393  0.62096062
   0.32325007  0.55621631  0.56305542
   0.50422054  0.58100507  0.65883364
   0.43329950  0.66967465  0.61056804
   0.48415441  0.56322731  0.41669344
   0.58098395  0.39632659  0.49177735
   0.64145627  0.61163288  0.55630442
   0.39148638  0.33872655  0.41749677
Direct configuration=    30
   0.38454995  0.53601489  0.59732684
   0.39975886  0.44070872  0.60805160
   0.48081006  0.40397307  0.62112429
   0.44298428  0.59893328  0.62363881
   0.53426544  0.52463045  0.45280530
   0.52956039  0.43423229  0.45722161
   0.59662696  0.57264550  0.50568785
   0.45482637  0.38320223  0.42879966
   0.34329946  0.39647736  0.59517698
   0.54077496  0.44494733  0.62685548
   0.49078267  0.33196708  0.62100939
   0.32333119  0.55619299  0.56281564
   0.50404972  0.58111052  0.65904715
   0.43323405  0.66972199  0.61047759
   0.48426401  0.56323993  0.41679791
   0.58110747  0.39633821  0.49186259
   0.64151355  0.61158139  0.55651210
   0.39167165  0.33870565  0.41741125
Direct configuration=    31
   0.38454959  0.53604204  0.59725636
   0.39976483  0.44074824  0.60807570
   0.48082563  0.40404250  0.62116858
   0.44288966  0.59900559  0.62367148
   0.53438179  0.52464109  0.45293715
   0.52970203  0.43424015  0.45731059
   0.59670483  0.57262797  0.50588280
   0.45500919  0.38319795  0.42879949
   0.34331548  0.39650252  0.59520929
   0.54077741  0.44504019  0.62686877
   0.49081914  0.33203971  0.62106620
   0.32342589  0.55616572  0.56253985
   0.50385103  0.58123240  0.65929192
   0.43315872  0.66977482  0.61037405
   0.48439116  0.56325391  0.41691824
   0.58124943  0.39635215  0.49195984
   0.64158225  0.61152446  0.55675451
   0.39188921  0.33868419  0.41731305
Direct configuration=    32
   0.38454674  0.53657464  0.59588333
   0.39987839  0.44151941  0.60853770
   0.48112185  0.40539080  0.62203358
   0.44105122  0.60041043  0.62430441
   0.53664220  0.52484370  0.45549220
   0.53245341  0.43438992  0.45903084
   0.59825884  0.57232158  0.50970748
   0.45860072  0.38313810  0.42879923
   0.34362627  0.39698810  0.59583850
   0.54081982  0.44684354  0.62714196
   0.49152586  0.33344897  0.62218721
   0.32527095  0.55563439  0.55719029
   0.49997778  0.58360867  0.66403609
   0.43169491  0.67079124  0.60837174
   0.48686711  0.56352620  0.41925916
   0.58400588  0.39662328  0.49384386
   0.64288570  0.61038943  0.56142614
   0.39609279  0.33825101  0.41539522
Direct configuration=    33
   0.38454608  0.53648688  0.59613748
   0.39984973  0.44136801  0.60842730
   0.48105368  0.40512233  0.62187070
   0.44142347  0.60012501  0.62418241
   0.53620648  0.52480484  0.45497671
   0.53191340  0.43435981  0.45867504
   0.59796215  0.57239572  0.50894933
   0.45788428  0.38313693  0.42879012
   0.34356064  0.39688205  0.59571816
   0.54080165  0.44648331  0.62711512
   0.49138130  0.33316616  0.62199364
   0.32493178  0.55573318  0.55828255
   0.50070659  0.58315692  0.66306127
   0.43198884  0.67057207  0.60878854
   0.48637954  0.56347841  0.41880016
   0.58345643  0.39656571  0.49346719
   0.64262601  0.61060952  0.56049159
   0.39528501  0.33835530  0.41577369
Direct configuration=    34
   0.38455111  0.53656261  0.59594848
   0.39986135  0.44147251  0.60847838
   0.48108620  0.40530083  0.62199222
   0.44117520  0.60031012  0.62426377
   0.53651571  0.52483285  0.45531206
   0.53228340  0.43437980  0.45889483
   0.59816879  0.57235574  0.50944906
   0.45838013  0.38313612  0.42878811
   0.34359925  0.39694111  0.59580458
   0.54080055  0.44672152  0.62717004
   0.49147182  0.33335184  0.62216241
   0.32518724  0.55566087  0.55758484
   0.50017417  0.58348295  0.66367817
   0.43179494  0.67069857  0.60853372
   0.48671193  0.56351829  0.41911530
   0.58382184  0.39659971  0.49371489
   0.64280714  0.61046137  0.56111596
   0.39584407  0.33829615  0.41551091
Direct configuration=    35
   0.38456122  0.53658194  0.59589825
   0.39986005  0.44149795  0.60847399
   0.48108308  0.40533943  0.62202887
   0.44111406  0.60035017  0.62427588
   0.53659483  0.52483950  0.45537703
   0.53237433  0.43438596  0.45893073
   0.59822319  0.57235471  0.50955542
   0.45850006  0.38313434  0.42877960
   0.34360398  0.39694658  0.59582758
   0.54079007  0.44677186  0.62721068
   0.49148636  0.33339109  0.62223017
   0.32525644  0.55564439  0.55745133
   0.50003433  0.58356875  0.66379371
   0.43175350  0.67071586  0.60849541
   0.48679039  0.56353291  0.41919084
   0.58390090  0.39660419  0.49376571
   0.64285047  0.61042639  0.56124835
   0.39597915  0.33829020  0.41544597
Direct configuration=    36
   0.38459392  0.53670522  0.59555038
   0.39986931  0.44167570  0.60851129
   0.48110538  0.40563711  0.62227057
   0.44067539  0.60066271  0.62439357
   0.53715591  0.52489232  0.45591282
   0.53303873  0.43442876  0.45926075
   0.59859903  0.57230560  0.51037969
   0.45934555  0.38310877  0.42873643
   0.34365701  0.39702556  0.59598510
   0.54075083  0.44716638  0.62740505
   0.49161758  0.33370088  0.62262482
   0.32572397  0.55552541  0.55634076
   0.49907180  0.58416214  0.66476903
   0.43142593  0.67090712  0.60812566
   0.48737040  0.56362069  0.41974277
   0.58451467  0.39665205  0.49416983
   0.64316929  0.61017021  0.56228177
   0.39698318  0.33822901  0.41498242
Direct configuration=    37
   0.38459646  0.53669554  0.59556147
   0.39986645  0.44166296  0.60850018
   0.48109665  0.40561971  0.62227002
   0.44069081  0.60064515  0.62438235
   0.53713783  0.52489080  0.45587841
   0.53301166  0.43442654  0.45923158
   0.59858873  0.57231128  0.51033224
   0.45934123  0.38313154  0.42873571
   0.34365102  0.39701826  0.59597897
   0.54074192  0.44714451  0.62742382
   0.49160334  0.33368469  0.62263637
   0.32570573  0.55553329  0.55640913
   0.49910860  0.58414107  0.66470751
   0.43143826  0.67089905  0.60815771
   0.48734671  0.56362150  0.41971965
   0.58448545  0.39664690  0.49414553
   0.64315970  0.61018309  0.56222624
   0.39692195  0.33822115  0.41499057
Direct configuration=    38
   0.38460027  0.53671359  0.59550266
   0.39986807  0.44168951  0.60850743
   0.48109948  0.40566812  0.62231417
   0.44061626  0.60069685  0.62440117
   0.53723336  0.52489974  0.45596688
   0.53312633  0.43443491  0.45928538
   0.59865707  0.57230483  0.51047146
   0.45947734  0.38312403  0.42872387
   0.34365916  0.39703229  0.59600456
   0.54073278  0.44721010  0.62746263
   0.49162255  0.33373651  0.62270986
   0.32578209  0.55551440  0.55622238
   0.49894880  0.58424003  0.66487111
   0.43137994  0.67093580  0.60809684
   0.48744524  0.56363693  0.41981230
   0.58459008  0.39665454  0.49421212
   0.64321356  0.61013952  0.56239681
   0.39710040  0.33821662  0.41491041
Direct configuration=    39
   0.38460445  0.53672524  0.59545757
   0.39986856  0.44170766  0.60851016
   0.48109956  0.40570273  0.62235137
   0.44055922  0.60073524  0.62441311
   0.53730776  0.52490742  0.45602989
   0.53321361  0.43444139  0.45932086
   0.59870689  0.57229760  0.51056751
   0.45958749  0.38312382  0.42871252
   0.34366371  0.39704153  0.59602352
   0.54072231  0.44725781  0.62750186
   0.49163379  0.33377399  0.62277596
   0.32583901  0.55550153  0.55608916
   0.49882873  0.58431527  0.66498713
   0.43133494  0.67096365  0.60805708
   0.48751976  0.56365023  0.41988174
   0.58466806  0.39665938  0.49425960
   0.64325809  0.61010969  0.56252293
   0.39723034  0.33821163  0.41484702
Direct configuration=    40
   0.38461289  0.53675175  0.59536104
   0.39986995  0.44174768  0.60851768
   0.48110087  0.40577794  0.62243068
   0.44043707  0.60081852  0.62443989
   0.53746676  0.52492312  0.45616657
   0.53340037  0.43445442  0.45939875
   0.59881906  0.57228554  0.51078255
   0.45983242  0.38312844  0.42869047
   0.34367389  0.39706210  0.59606403
   0.54070129  0.44736161  0.62758327
   0.49165910  0.33385497  0.62291551
   0.32596133  0.55547359  0.55579926
   0.49857071  0.58447691  0.66523940
   0.43123771  0.67102384  0.60796937
   0.48768056  0.56367849  0.42003126
   0.58483693  0.39667040  0.49436290
   0.64334850  0.61004078  0.56279012
   0.39750256  0.33819496  0.41470980
Direct configuration=    41
   0.38462327  0.53678534  0.59523804
   0.39987117  0.44179718  0.60852645
   0.48109977  0.40587148  0.62253656
   0.44028171  0.60092372  0.62447258
   0.53767118  0.52494328  0.45633751
   0.53364264  0.43447312  0.45949492
   0.59896311  0.57226923  0.51105006
   0.46012597  0.38312215  0.42865345
   0.34368516  0.39708729  0.59611442
   0.54067188  0.44749244  0.62769634
   0.49168792  0.33395575  0.62310378
   0.32611537  0.55543868  0.55543531
   0.49824273  0.58468263  0.66555445
   0.43111127  0.67110081  0.60786236
   0.48788600  0.56371569  0.42022074
   0.58505227  0.39668398  0.49449163
   0.64346725  0.60995577  0.56312748
   0.39786763  0.33818803  0.41453557
Direct configuration=    42
   0.38470668  0.53706813  0.59422872
   0.39988322  0.44221272  0.60860808
   0.48110272  0.40665050  0.62339289
   0.43900360  0.60179446  0.62474999
   0.53934631  0.52510728  0.45776084
   0.53561379  0.43461426  0.46029873
   0.60014037  0.57213020  0.51327180
   0.46266095  0.38315292  0.42839425
   0.34378451  0.39730049  0.59653078
   0.54044295  0.44857691  0.62858980
   0.49193836  0.33479243  0.62461418
   0.32738750  0.55514699  0.55241100
   0.49554130  0.58637467  0.66817607
   0.43007494  0.67173354  0.60695937
   0.48957727  0.56401622  0.42178308