  18  18   0   0
  0.1875000E+03  0.1500000E-08  0.1500000E-08  0.1500000E-08  0.5000000E-15
  1.000000000000000E-004
  CAR 
 unknown system                          
      2.10247293    -24.02169130  301     -6.25181709      1.00000000
    -24.022  0.0000E+00  0.0000E+00
    -23.935  0.0000E+00  0.0000E+00
    -23.848  0.0000E+00  0.0000E+00
    -23.760  0.0000E+00  0.0000E+00
    -23.673  0.0000E+00  0.0000E+00
    -23.586  0.0000E+00  0.0000E+00
    -23.499  0.0000E+00  0.0000E+00
    -23.412  0.0000E+00  0.0000E+00
    -23.325  0.0000E+00  0.0000E+00
    -23.238  0.0000E+00  0.0000E+00
    -23.151  0.0000E+00  0.0000E+00
    -23.064  0.9638E-09  0.8393E-10
    -22.977  0.6395E-03  0.5569E-04
    -22.890  0.1343E+01  0.1170E+00
    -22.803  0.1737E+02  0.1630E+01
    -22.715  0.4245E+01  0.1999E+01
    -22.628  0.9097E-02  0.2000E+01
    -22.541  0.5509E+00  0.2048E+01
    -22.454  0.1521E+02  0.3373E+01
    -22.367  0.7167E+01  0.3997E+01
    -22.280  0.3667E-01  0.4000E+01
    -22.193  0.7176E-06  0.4000E+01
    -22.106  0.4080E-13  0.4000E+01
    -22.019  0.2040E-13  0.4000E+01
    -21.932  0.4615E-06  0.4000E+01
    -21.845  0.2836E-01  0.4002E+01
    -21.758  0.6549E+01  0.4573E+01
    -21.671  0.1573E+02  0.5942E+01
    -21.583  0.6609E+00  0.6000E+01
    -21.496  0.1480E-03  0.6000E+01
    -21.409  0.1009E-09  0.6000E+01
    -21.322  0.0000E+00  0.6000E+01
    -21.235  0.0000E+00  0.6000E+01
    -21.148  0.0000E+00  0.6000E+01
    -21.061  0.0000E+00  0.6000E+01
    -20.974  0.0000E+00  0.6000E+01
    -20.887  0.0000E+00  0.6000E+01
    -20.800  0.0000E+00  0.6000E+01
    -20.713  0.0000E+00  0.6000E+01
    -20.626  0.0000E+00  0.6000E+01
    -20.538  0.0000E+00  0.6000E+01
    -20.451  0.0000E+00  0.6000E+01
    -20.364  0.0000E+00  0.6000E+01
    -20.277  0.0000E+00  0.6000E+01
    -20.190  0.0000E+00  0.6000E+01
    -20.103  0.0000E+00  0.6000E+01
    -20.016  0.0000E+00  0.6000E+01
    -19.929  0.1071E-12  0.6000E+01
    -19.842  0.1447E-05  0.6000E+01
    -19.755  0.5548E-01  0.6005E+01
    -19.668  0.9539E+01  0.6835E+01
    -19.581  0.3164E+02  0.9591E+01
    -19.494  0.4687E+01  0.9999E+01
    -19.406  0.9246E-02  0.1000E+02
    -19.319  0.6935E-07  0.1000E+02
    -19.232  0.0000E+00  0.1000E+02
    -19.145  0.0000E+00  0.1000E+02
    -19.058  0.0000E+00  0.1000E+02
    -18.971  0.0000E+00  0.1000E+02
    -18.884  0.0000E+00  0.1000E+02
    -18.797  0.0000E+00  0.1000E+02
    -18.710  0.0000E+00  0.1000E+02
    -18.623  0.0000E+00  0.1000E+02
    -18.536  0.0000E+00  0.1000E+02
    -18.449  0.0000E+00  0.1000E+02
    -18.361  0.0000E+00  0.1000E+02
    -18.274  0.0000E+00  0.1000E+02
    -18.187  0.0000E+00  0.1000E+02
    -18.100  0.0000E+00  0.1000E+02
    -18.013  0.0000E+00  0.1000E+02
    -17.926  0.0000E+00  0.1000E+02
    -17.839  0.0000E+00  0.1000E+02
    -17.752  0.0000E+00  0.1000E+02
    -17.665  0.0000E+00  0.1000E+02
    -17.578  0.0000E+00  0.1000E+02
    -17.491  0.0000E+00  0.1000E+02
    -17.404  0.0000E+00  0.1000E+02
    -17.316  0.0000E+00  0.1000E+02
    -17.229  0.0000E+00  0.1000E+02
    -17.142  0.0000E+00  0.1000E+02
    -17.055  0.1414E-09  0.1000E+02
    -16.968  0.1846E-03  0.1000E+02
    -16.881  0.7376E+00  0.1006E+02
    -16.794  0.1603E+02  0.1146E+02
    -16.707  0.6179E+01  0.1200E+02
    -16.620  0.2413E-01  0.1200E+02
    -16.533  0.9784E-04  0.1200E+02
    -16.446  0.5356E+00  0.1205E+02
    -16.359  0.1513E+02  0.1336E+02
    -16.272  0.7263E+01  0.1400E+02
    -16.184  0.3811E-01  0.1400E+02
    -16.097  0.7670E-06  0.1400E+02
    -16.010  0.4335E-13  0.1400E+02
    -15.923  0.0000E+00  0.1400E+02
    -15.836  0.0000E+00  0.1400E+02
    -15.749  0.0000E+00  0.1400E+02
    -15.662  0.0000E+00  0.1400E+02
    -15.575  0.0000E+00  0.1400E+02
    -15.488  0.0000E+00  0.1400E+02
    -15.401  0.0000E+00  0.1400E+02
    -15.314  0.0000E+00  0.1400E+02
    -15.227  0.0000E+00  0.1400E+02
    -15.139  0.0000E+00  0.1400E+02
    -15.052  0.0000E+00  0.1400E+02
    -14.965  0.0000E+00  0.1400E+02
    -14.878  0.0000E+00  0.1400E+02
    -14.791  0.0000E+00  0.1400E+02
    -14.704  0.0000E+00  0.1400E+02
    -14.617  0.0000E+00  0.1400E+02
    -14.530  0.0000E+00  0.1400E+02
    -14.443  0.0000E+00  0.1400E+02
    -14.356  0.0000E+00  0.1400E+02
    -14.269  0.0000E+00  0.1400E+02
    -14.182  0.5458E-11  0.1400E+02
    -14.095  0.2124E-04  0.1400E+02
    -14.007  0.2423E+00  0.1402E+02
    -13.920  0.1267E+02  0.1512E+02
    -13.833  0.1003E+02  0.1600E+02
    -13.746  0.9199E+01  0.1680E+02
    -13.659  0.1348E+02  0.1797E+02
    -13.572  0.3127E+00  0.1800E+02
    -13.485  0.3440E-04  0.1800E+02
    -13.398  0.1118E-10  0.1800E+02
    -13.311  0.0000E+00  0.1800E+02
    -13.224  0.0000E+00  0.1800E+02
    -13.137  0.1078E-09  0.1800E+02
    -13.050  0.1545E-03  0.1800E+02
    -12.962  0.6752E+00  0.1806E+02
    -12.875  0.1579E+02  0.1943E+02
    -12.788  0.6477E+01  0.2000E+02
    -12.701  0.2750E-01  0.2000E+02
    -12.614  0.4376E-06  0.2000E+02
    -12.527  0.2040E-13  0.2000E+02
    -12.440  0.0000E+00  0.2000E+02
    -12.353  0.0000E+00  0.2000E+02
    -12.266  0.0000E+00  0.2000E+02
    -12.179  0.0000E+00  0.2000E+02
    -12.092  0.1723E-10  0.2000E+02
    -12.005  0.4592E-04  0.2000E+02
    -11.917  0.3638E+00  0.2003E+02
    -11.830  0.1396E+02  0.2125E+02
    -11.743  0.8585E+01  0.2199E+02
    -11.656  0.6293E-01  0.2200E+02
    -11.569  0.3494E+00  0.2203E+02
    -11.482  0.1383E+02  0.2323E+02
    -11.395  0.8722E+01  0.2399E+02
    -11.308  0.6605E-01  0.2400E+02
    -11.221  0.2965E-04  0.2400E+02
    -11.134  0.2787E+00  0.2402E+02
    -11.047  0.1312E+02  0.2517E+02
    -10.960  0.9485E+01  0.2599E+02
    -10.873  0.8627E-01  0.2600E+02
    -10.785  0.3219E-05  0.2600E+02
    -10.698  0.2707E-04  0.2600E+02
    -10.611  0.2756E+00  0.2602E+02
    -10.524  0.1313E+02  0.2717E+02
    -10.437  0.1718E+02  0.2866E+02
    -10.350  0.1487E+02  0.2996E+02
    -10.263  0.4772E+00  0.3000E+02
    -10.176  0.7771E-04  0.3000E+02
    -10.089  0.3801E-10  0.3000E+02
    -10.002  0.0000E+00  0.3000E+02
     -9.915  0.0000E+00  0.3000E+02
     -9.828  0.7701E-10  0.3000E+02
     -9.740  0.1239E-03  0.3000E+02
     -9.653  0.6045E+00  0.3005E+02
     -9.566  0.1548E+02  0.3140E+02
     -9.479  0.6851E+01  0.3200E+02
     -9.392  0.1244E+00  0.3201E+02
     -9.305  0.9679E+01  0.3285E+02
     -9.218  0.1293E+02  0.3398E+02
     -9.131  0.2703E+00  0.3400E+02
     -9.044  0.3896E+01  0.3434E+02
     -8.957  0.1756E+02  0.3587E+02
     -8.870  0.1508E+01  0.3600E+02
     -8.783  0.8195E-03  0.3600E+02
     -8.696  0.1981E-08  0.3600E+02
     -8.608  0.4512E-03  0.3600E+02
     -8.521  0.1141E+01  0.3610E+02
     -8.434  0.1914E+02  0.3777E+02
     -8.347  0.2300E+02  0.3977E+02
     -8.260  0.1671E+02  0.4122E+02
     -8.173  0.8845E+01  0.4199E+02
     -8.086  0.2135E+00  0.4201E+02
     -7.999  0.1104E+02  0.4297E+02
     -7.912  0.1280E+02  0.4409E+02
     -7.825  0.2388E+02  0.4617E+02
     -7.738  0.2037E+02  0.4794E+02
     -7.651  0.6637E+00  0.4800E+02
     -7.563  0.1442E-03  0.4800E+02
     -7.476  0.9695E-10  0.4800E+02
     -7.389  0.0000E+00  0.4800E+02
     -7.302  0.0000E+00  0.4800E+02
     -7.215  0.0000E+00  0.4800E+02
     -7.128  0.0000E+00  0.4800E+02
     -7.041  0.0000E+00  0.4800E+02
     -6.954  0.0000E+00  0.4800E+02
     -6.867  0.0000E+00  0.4800E+02
     -6.780  0.8978E-09  0.4800E+02
     -6.693  0.6111E-03  0.4800E+02
     -6.606  0.1315E+01  0.4811E+02
     -6.519  0.1733E+02  0.4962E+02
     -6.431  0.4311E+01  0.5000E+02
     -6.344  0.9348E-02  0.5000E+02
     -6.257  0.7132E-07  0.5000E+02
     -6.170  0.0000E+00  0.5000E+02
     -6.083  0.0000E+00  0.5000E+02
     -5.996  0.0000E+00  0.5000E+02
     -5.909  0.0000E+00  0.5000E+02
     -5.822  0.0000E+00  0.5000E+02
     -5.735  0.0000E+00  0.5000E+02
     -5.648  0.0000E+00  0.5000E+02
     -5.561  0.0000E+00  0.5000E+02
     -5.474  0.0000E+00  0.5000E+02
     -5.386  0.0000E+00  0.5000E+02
     -5.299  0.0000E+00  0.5000E+02
     -5.212  0.0000E+00  0.5000E+02
     -5.125  0.0000E+00  0.5000E+02
     -5.038  0.0000E+00  0.5000E+02
     -4.951  0.0000E+00  0.5000E+02
     -4.864  0.0000E+00  0.5000E+02
     -4.777  0.0000E+00  0.5000E+02
     -4.690  0.0000E+00  0.5000E+02
     -4.603  0.0000E+00  0.5000E+02
     -4.516  0.0000E+00  0.5000E+02
     -4.429  0.0000E+00  0.5000E+02
     -4.341  0.0000E+00  0.5000E+02
     -4.254  0.0000E+00  0.5000E+02
     -4.167  0.0000E+00  0.5000E+02
     -4.080  0.0000E+00  0.5000E+02
     -3.993  0.0000E+00  0.5000E+02
     -3.906  0.0000E+00  0.5000E+02
     -3.819  0.0000E+00  0.5000E+02
     -3.732  0.0000E+00  0.5000E+02
     -3.645  0.0000E+00  0.5000E+02
     -3.558  0.0000E+00  0.5000E+02
     -3.471  0.0000E+00  0.5000E+02
     -3.384  0.0000E+00  0.5000E+02
     -3.297  0.0000E+00  0.5000E+02
     -3.209  0.0000E+00  0.5000E+02
     -3.122  0.0000E+00  0.5000E+02
     -3.035  0.0000E+00  0.5000E+02
     -2.948  0.0000E+00  0.5000E+02
     -2.861  0.0000E+00  0.5000E+02
     -2.774  0.0000E+00  0.5000E+02
     -2.687  0.0000E+00  0.5000E+02
     -2.600  0.0000E+00  0.5000E+02
     -2.513  0.0000E+00  0.5000E+02
     -2.426  0.0000E+00  0.5000E+02
     -2.339  0.0000E+00  0.5000E+02
     -2.252  0.0000E+00  0.5000E+02
     -2.164  0.0000E+00  0.5000E+02
     -2.077  0.0000E+00  0.5000E+02
     -1.990  0.0000E+00  0.5000E+02
     -1.903  0.0000E+00  0.5000E+02
     -1.816  0.0000E+00  0.5000E+02
     -1.729  0.0000E+00  0.5000E+02
     -1.642  0.0000E+00  0.5000E+02
     -1.555  0.1618E-08  0.5000E+02
     -1.468  0.8904E-03  0.5000E+02
     -1.381  0.1567E+01  0.5014E+02
     -1.294  0.1761E+02  0.5167E+02
     -1.207  0.3783E+01  0.5200E+02
     -1.120  0.6751E-02  0.5200E+02
     -1.032  0.4175E-07  0.5200E+02
     -0.945  0.8527E-04  0.5200E+02
     -0.858  0.5012E+00  0.5204E+02
     -0.771  0.1644E+02  0.5348E+02
     -0.684  0.2591E+02  0.5573E+02
     -0.597  0.2035E+02  0.5750E+02
     -0.510  0.5679E+01  0.5800E+02
     -0.423  0.1919E-01  0.5800E+02
     -0.336  0.5474E+00  0.5805E+02
     -0.249  0.2336E+02  0.6008E+02
     -0.162  0.2695E+02  0.6243E+02
     -0.075  0.1987E+02  0.6416E+02
      0.013  0.1889E+02  0.6580E+02
      0.100  0.2394E+01  0.6601E+02
      0.187  0.1111E+02  0.6698E+02
      0.274  0.1162E+02  0.6799E+02
      0.361  0.9488E+01  0.6882E+02
      0.448  0.1342E+02  0.6999E+02
      0.535  0.1163E+02  0.7100E+02
      0.622  0.2433E+02  0.7312E+02
      0.709  0.1196E+02  0.7416E+02
      0.796  0.2474E+02  0.7631E+02
      0.883  0.2300E+02  0.7832E+02
      0.970  0.1799E+02  0.7988E+02
      1.058  0.1343E+01  0.8000E+02
      1.145  0.6395E-03  0.8000E+02
      1.232  0.9638E-09  0.8000E+02
      1.319  0.0000E+00  0.8000E+02
      1.406  0.0000E+00  0.8000E+02
      1.493  0.0000E+00  0.8000E+02
      1.580  0.0000E+00  0.8000E+02
      1.667  0.0000E+00  0.8000E+02
      1.754  0.0000E+00  0.8000E+02
      1.841  0.0000E+00  0.8000E+02
      1.928  0.0000E+00  0.8000E+02
      2.015  0.0000E+00  0.8000E+02
      2.102  0.0000E+00  0.8000E+02
