<?xml version="1.0" encoding="ISO-8859-1"?>
<modeling>
 <generator>
  <i name="program" type="string">vasp </i>
  <i name="version" type="string">6.3.2  </i>
  <i name="subversion" type="string">27Jun22 (build Oct 05 2023 17:59:42) gamma-only                       parallel </i>
  <i name="platform" type="string">LinuxIFC </i>
  <i name="date" type="string">2024 04 09 </i>
  <i name="time" type="string">13:57:58 </i>
 </generator>
 <incar>
  <i type="string" name="ALGO">Fast</i>
  <i type="int" name="ISPIN">     1</i>
  <i name="ENCUT">    400.00000000</i>
  <i type="int" name="ISMEAR">     0</i>
  <i name="SIGMA">      0.05000000</i>
  <i type="logical" name="LWAVE"> F  </i>
  <i type="logical" name="LCHARG"> F  </i>
  <i type="string" name="GGA">PE</i>
  <i type="int" name="IVDW">    11</i>
 </incar>
 <primitive_cell>
  <structure name="primitive_cell" >
   <crystal>
    <varray name="basis" >
     <v>      15.00000000       0.00000000       0.00000000 </v>
     <v>       0.00000000      15.00000000       0.00000000 </v>
     <v>       0.00000000       0.00000000      15.00000000 </v>
    </varray>
    <i name="volume">   3375.00000000 </i>
    <varray name="rec_basis" >
     <v>       0.06666667       0.00000000       0.00000000 </v>
     <v>       0.00000000       0.06666667       0.00000000 </v>
     <v>       0.00000000       0.00000000       0.06666667 </v>
    </varray>
   </crystal>
   <varray name="positions" >
    <v>       0.37676741       0.54327305       0.57303756 </v>
    <v>       0.37751967       0.45503608       0.55988889 </v>
    <v>       0.46120204       0.40057530       0.55278536 </v>
    <v>       0.45951182       0.59914743       0.58015882 </v>
    <v>       0.54322962       0.54889174       0.54734210 </v>
    <v>       0.54404539       0.45224361       0.58562603 </v>
    <v>       0.62384200       0.59811659       0.57103515 </v>
    <v>       0.62549729       0.40440094       0.56196997 </v>
    <v>       0.31458491       0.41889867       0.55396951 </v>
    <v>       0.45490464       0.33889852       0.59204996 </v>
    <v>       0.47172882       0.37871281       0.48333434 </v>
    <v>       0.31322640       0.57833483       0.57894701 </v>
    <v>       0.46965265       0.62118735       0.64961199 </v>
    <v>       0.45217876       0.66070737       0.54088951 </v>
    <v>       0.54084550       0.54367983       0.47402026 </v>
    <v>       0.54154786       0.45741130       0.65894710 </v>
    <v>       0.68666993       0.63877297       0.59194738 </v>
    <v>       0.68902797       0.36482905       0.54109978 </v>
   </varray>
  </structure>
  <varray name="primitive_index" >
   <v type="int" >        1 </v>
   <v type="int" >        2 </v>
   <v type="int" >        3 </v>
   <v type="int" >        4 </v>
   <v type="int" >        5 </v>
   <v type="int" >        6 </v>
   <v type="int" >        7 </v>
   <v type="int" >        8 </v>
   <v type="int" >        9 </v>
   <v type="int" >       10 </v>
   <v type="int" >       11 </v>
   <v type="int" >       12 </v>
   <v type="int" >       13 </v>
   <v type="int" >       14 </v>
   <v type="int" >       15 </v>
   <v type="int" >       16 </v>
   <v type="int" >       17 </v>
   <v type="int" >       18 </v>
  </varray>
 </primitive_cell>
 <kpoints>
  <generation param="Gamma">
   <v type="int" name="divisions">       1        1        1 </v>
   <v name="usershift">      0.00000000       0.00000000       0.00000000 </v>
   <v name="genvec1">      1.00000000       0.00000000       0.00000000 </v>
   <v name="genvec2">      0.00000000       1.00000000       0.00000000 </v>
   <v name="genvec3">      0.00000000       0.00000000       1.00000000 </v>
   <v name="shift">      0.00000000       0.00000000       0.00000000 </v>
  </generation>
  <varray name="kpointlist" >
   <v>       0.00000000       0.00000000       0.00000000 </v>
  </varray>
  <varray name="weights" >
   <v>       1.00000000 </v>
  </varray>
 </kpoints>
 <parameters>
  <separator name="general" >
   <i type="string" name="SYSTEM">unknown system</i>
   <i type="logical" name="LCOMPAT"> F  </i>
  </separator>
  <separator name="electronic" >
   <i type="string" name="PREC">normal</i>
   <i name="ENMAX">    400.00000000</i>
   <i name="ENAUG">    644.87300000</i>
   <i name="EDIFF">      0.00010000</i>
   <i type="int" name="IALGO">    68</i>
   <i type="int" name="IWAVPR">    10</i>
   <i type="int" name="NBANDS">    40</i>
   <i type="int" name="NBANDSLOW">    -1</i>
   <i type="int" name="NBANDSHIGH">    -1</i>
   <i name="NELECT">     50.00000000</i>
   <i type="int" name="TURBO">     0</i>
   <i type="int" name="IRESTART">     0</i>
   <i type="int" name="NREBOOT">     0</i>
   <i type="int" name="NMIN">     0</i>
   <i name="EREF">      0.00000000</i>
   <separator name="electronic smearing" >
    <i type="int" name="ISMEAR">     0</i>
    <i name="SIGMA">      0.05000000</i>
    <i name="KSPACING">      0.50000000</i>
    <i type="logical" name="KGAMMA"> T  </i>
    <i type="logical" name="KBLOWUP"> T  </i>
   </separator>
   <separator name="electronic projectors" >
    <i type="logical" name="LREAL"> F  </i>
    <v name="ROPT">      0.00000000      0.00000000      0.00000000</v>
    <i type="int" name="LMAXPAW">  -100</i>
    <i type="int" name="LMAXMIX">     2</i>
    <i type="logical" name="NLSPLINE"> F  </i>
   </separator>
   <separator name="electronic startup" >
    <i type="int" name="ISTART">     0</i>
    <i type="int" name="ICHARG">     2</i>
    <i type="int" name="INIWAV">     1</i>
   </separator>
   <separator name="electronic spin" >
    <i type="int" name="ISPIN">     1</i>
    <i type="logical" name="LNONCOLLINEAR"> F  </i>
    <v name="MAGMOM">      1.00000000      1.00000000      1.00000000      1.00000000      1.00000000      1.00000000      1.00000000      1.00000000      1.00000000      1.00000000      1.00000000      1.00000000      1.00000000      1.00000000      1.00000000      1.00000000      1.00000000      1.00000000</v>
    <i name="NUPDOWN">     -1.00000000</i>
    <i type="logical" name="LSORBIT"> F  </i>
    <v name="SAXIS">      0.00000000      0.00000000      1.00000000</v>
    <i type="logical" name="LSPIRAL"> F  </i>
    <v name="QSPIRAL">      0.00000000      0.00000000      0.00000000</v>
    <i type="logical" name="LZEROZ"> F  </i>
   </separator>
   <separator name="electronic exchange-correlation" >
    <i type="logical" name="LASPH"> F  </i>
    <i type="logical" name="LMETAGGA"> F  </i>
   </separator>
   <separator name="electronic convergence" >
    <i type="int" name="NELM">    60</i>
    <i type="int" name="NELMDL">    -5</i>
    <i type="int" name="NELMIN">     2</i>
    <i name="ENINI">    400.00000000</i>
    <separator name="electronic convergence detail" >
     <i type="logical" name="LDIAG"> T  </i>
     <i type="logical" name="LSUBROT"> F  </i>
     <i name="WEIMIN">      0.00000000</i>
     <i name="EBREAK">      0.00000063</i>
     <i name="DEPER">      0.30000000</i>
     <i type="int" name="NRMM">     4</i>
     <i name="TIME">      0.40000000</i>
    </separator>
   </separator>
   <separator name="electronic mixer" >
    <i name="AMIX">      0.40000000</i>
    <i name="BMIX">      1.00000000</i>
    <i name="AMIN">      0.10000000</i>
    <i name="AMIX_MAG">      1.60000000</i>
    <i name="BMIX_MAG">      1.00000000</i>
    <separator name="electronic mixer details" >
     <i type="int" name="IMIX">     4</i>
     <i type="logical" name="MIXFIRST"> F  </i>
     <i type="int" name="MAXMIX">   -45</i>
     <i name="WC">    100.00000000</i>
     <i type="int" name="INIMIX">     1</i>
     <i type="int" name="MIXPRE">     1</i>
     <i type="int" name="MREMOVE">     5</i>
    </separator>
   </separator>
   <separator name="electronic dipolcorrection" >
    <i type="logical" name="LDIPOL"> F  </i>
    <i type="logical" name="LMONO"> F  </i>
    <i type="int" name="IDIPOL">     0</i>
    <i name="EPSILON">      1.00000000</i>
    <v name="DIPOL">   -100.00000000   -100.00000000   -100.00000000</v>
    <i name="EFIELD">      0.00000000</i>
   </separator>
  </separator>
  <separator name="grids" >
   <i type="int" name="NGX">    80</i>
   <i type="int" name="NGY">    80</i>
   <i type="int" name="NGZ">    80</i>
   <i type="int" name="NGXF">   160</i>
   <i type="int" name="NGYF">   160</i>
   <i type="int" name="NGZF">   160</i>
   <i type="logical" name="ADDGRID"> F  </i>
  </separator>
  <separator name="ionic" >
   <i type="int" name="NSW">     0</i>
   <i type="int" name="IBRION">    -1</i>
   <i type="int" name="MDALGO">     0</i>
   <i type="int" name="ISIF">     2</i>
   <i name="PSTRESS">      0.00000000</i>
   <i name="EDIFFG">      0.00100000</i>
   <i type="int" name="NFREE">     0</i>
   <i name="POTIM">      0.50000000</i>
   <i name="SMASS">     -3.00000000</i>
   <i name="SCALEE">      1.00000000</i>
  </separator>
  <separator name="ionic md" >
   <i name="TEBEG">      0.00010000</i>
   <i name="TEEND">      0.00010000</i>
   <i type="int" name="NBLOCK">     1</i>
   <i type="int" name="KBLOCK">     1</i>
   <i type="int" name="NPACO">   256</i>
   <i name="APACO">     10.00000000</i>
  </separator>
  <separator name="symmetry" >
   <i type="int" name="ISYM">     2</i>
   <i name="SYMPREC">      0.00001000</i>
  </separator>
  <separator name="dos" >
   <i type="int" name="LORBIT">     0</i>
   <v name="RWIGS">     -1.00000000     -1.00000000     -1.00000000</v>
   <i type="int" name="NEDOS">   301</i>
   <i name="EMIN">     10.00000000</i>
   <i name="EMAX">    -10.00000000</i>
   <i name="EFERMI">      0.00000000</i>
  </separator>
  <separator name="writing" >
   <i type="int" name="NWRITE">     2</i>
   <i type="logical" name="LWAVE"> F  </i>
   <i type="logical" name="LDOWNSAMPLE"> F  </i>
   <i type="logical" name="LCHARG"> F  </i>
   <i type="logical" name="LPARD"> F  </i>
   <i type="logical" name="LVTOT"> F  </i>
   <i type="logical" name="LVHAR"> F  </i>
   <i type="logical" name="LELF"> F  </i>
   <i type="logical" name="LOPTICS"> F  </i>
   <v name="STM">      0.00000000      0.00000000      0.00000000      0.00000000      0.00000000      0.00000000      0.00000000</v>
  </separator>
  <separator name="performance" >
   <i type="int" name="NPAR">    10</i>
   <i type="int" name="NSIM">     4</i>
   <i type="int" name="NBLK">    -1</i>
   <i type="logical" name="LPLANE"> T  </i>
   <i type="logical" name="LSCALAPACK"> T  </i>
   <i type="logical" name="LSCAAWARE"> F  </i>
   <i type="logical" name="LSCALU"> F  </i>
   <i type="logical" name="LASYNC"> F  </i>
   <i type="logical" name="LORBITALREAL"> F  </i>
  </separator>
  <separator name="miscellaneous" >
   <i type="int" name="IDIOT">     3</i>
   <i type="int" name="PHON_NSTRUCT">    -1</i>
   <i type="logical" name="LMUSIC"> F  </i>
   <v name="POMASS">     12.01100000      1.00000000     14.00100000</v>
   <v name="DARWINR">      0.00000000      0.00000000      0.00000000</v>
   <v name="DARWINV">      1.00000000      1.00000000      1.00000000</v>
   <i type="logical" name="LCORR"> T  </i>
  </separator>
  <i type="logical" name="GGA_COMPAT"> T  </i>
  <i type="logical" name="LBERRY"> F  </i>
  <i type="int" name="ICORELEVEL">     0</i>
  <i type="logical" name="LDAU"> F  </i>
  <i type="int" name="I_CONSTRAINED_M">     0</i>
  <separator name="electronic exchange-correlation" >
   <i type="string" name="GGA">PE</i>
   <i type="int" name="VOSKOWN">     0</i>
   <i type="logical" name="LHFCALC"> F  </i>
   <i type="string" name="PRECFOCK"></i>
   <i type="logical" name="LSYMGRAD"> F  </i>
   <i type="logical" name="LHFONE"> F  </i>
   <i type="logical" name="LRHFCALC"> F  </i>
   <i type="logical" name="LTHOMAS"> F  </i>
   <i type="logical" name="LMODELHF"> F  </i>
   <i type="logical" name="LFOCKACE"> F  </i>
   <i name="ENCUT4O">     -1.00000000</i>
   <i type="int" name="EXXOEP">     0</i>
   <i type="int" name="FOURORBIT">     0</i>
   <i name="AEXX">      0.00000000</i>
   <i name="HFALPHA">      0.00000000</i>
   <i name="MCALPHA">      0.00000000</i>
   <i name="ALDAX">      1.00000000</i>
   <i name="AGGAX">      1.00000000</i>
   <i name="ALDAC">      1.00000000</i>
   <i name="AGGAC">      1.00000000</i>
   <i type="int" name="NKREDX">     1</i>
   <i type="int" name="NKREDY">     1</i>
   <i type="int" name="NKREDZ">     1</i>
   <i type="logical" name="SHIFTRED"> F  </i>
   <i type="logical" name="ODDONLY"> F  </i>
   <i type="logical" name="EVENONLY"> F  </i>
   <i type="int" name="LMAXFOCK">     0</i>
   <i type="int" name="NMAXFOCKAE">     0</i>
   <i type="logical" name="LFOCKAEDFT"> F  </i>
   <i name="HFSCREEN">      0.00000000</i>
   <i name="HFSCREENC">      0.00000000</i>
   <i type="int" name="NBANDSGWLOW">     0</i>
  </separator>
  <separator name="vdW DFT" >
   <i type="logical" name="LUSE_VDW"> F  </i>
   <i name="Zab_VDW">     -0.84910000</i>
   <i name="PARAM1">      0.12340000</i>
   <i name="PARAM2">      1.00000000</i>
   <i name="PARAM3">      0.00000000</i>
  </separator>
  <separator name="model GW" >
   <i type="int" name="MODEL_GW">     0</i>
   <i name="MODEL_EPS0">    112.50000000</i>
   <i name="MODEL_ALPHA">      1.00000000</i>
  </separator>
  <separator name="linear response parameters" >
   <i type="logical" name="LEPSILON"> F  </i>
   <i type="logical" name="LRPA"> F  </i>
   <i type="logical" name="LNABLA"> F  </i>
   <i type="logical" name="LVEL"> F  </i>
   <i name="CSHIFT">      0.10000000</i>
   <i name="OMEGAMAX">     -1.00000000</i>
   <i name="DEG_THRESHOLD">      0.00200000</i>
   <i name="RTIME">     -0.10000000</i>
   <i name="WPLASMAI">      0.00000000</i>
   <v name="DFIELD">      0.00000000      0.00000000      0.00000000</v>
   <v name="WPLASMA">      0.00000000      0.00000000      0.00000000      0.00000000      0.00000000      0.00000000      0.00000000      0.00000000      0.00000000</v>
  </separator>
  <separator name="orbital magnetization" >
   <i type="logical" name="NUCIND"> F  </i>
   <v name="MAGPOS">      0.00000000      0.00000000      0.00000000</v>
   <i type="logical" name="LNICSALL"> T  </i>
   <i type="logical" name="ORBITALMAG"> F  </i>
   <i type="logical" name="LMAGBLOCH"> F  </i>
   <i type="logical" name="LCHIMAG"> F  </i>
   <i type="logical" name="LGAUGE"> T  </i>
   <i type="int" name="MAGATOM">     0</i>
   <v name="MAGDIPOL">      0.00000000      0.00000000      0.00000000</v>
   <v name="AVECCONST">      0.00000000      0.00000000      0.00000000</v>
  </separator>
  <separator name="response functions" >
   <i type="logical" name="LFINITE_TEMPERATURE"> F  </i>
   <i type="logical" name="LADDER"> F  </i>
   <i type="logical" name="LRPAFORCE"> F  </i>
   <i type="logical" name="LFXC"> F  </i>
   <i type="logical" name="LHARTREE"> T  </i>
   <i type="int" name="IBSE">     0</i>
   <v type="int" name="KPOINT">    -1     0     0     0</v>
   <i type="logical" name="LTCTC"> F  </i>
   <i type="logical" name="LTCTE"> F  </i>
   <i type="logical" name="LTETE"> F  </i>
   <i type="logical" name="LTRIPLET"> F  </i>
   <i type="logical" name="LFXCEPS"> F  </i>
   <i type="logical" name="LFXHEG"> F  </i>
   <i type="int" name="NATURALO">     2</i>
   <i type="logical" name="LHOLEGF"> F  </i>
   <i type="logical" name="L2ORDER"> F  </i>
   <i type="logical" name="LDMP1"> F  </i>
   <i type="logical" name="LMP2LT"> F  </i>
   <i type="logical" name="LSMP2LT"> F  </i>
   <i type="logical" name="LGWLF"> F  </i>
   <i name="ENCUTGW">     -2.00000000</i>
   <i name="ENCUTGWSOFT">     -2.00000000</i>
   <i name="ENCUTLF">     -1.00000000</i>
   <i type="logical" name="LESF_SPLINES"> F  </i>
   <i type="int" name="LMAXMP2">    -1</i>
   <i name="SCISSOR">      0.00000000</i>
   <i type="int" name="NOMEGA">     0</i>
   <i type="int" name="NOMEGAR">     0</i>
   <i type="int" name="NBANDSGW">    -1</i>
   <i type="int" name="NBANDSO">    -1</i>
   <i type="int" name="NBANDSV">    -1</i>
   <i type="int" name="NELMGW">     1</i>
   <i type="int" name="NELMHF">     1</i>
   <i type="int" name="DIM">     3</i>
   <i type="int" name="IESPILON">     4</i>
   <i type="int" name="ANTIRES">     0</i>
   <i name="OMEGAMAX">    -30.00000000</i>
   <i name="OMEGAMIN">    -30.00000000</i>
   <i name="OMEGATL">   -200.00000000</i>
   <i type="int" name="OMEGAGRID">     0</i>
   <i name="CSHIFT">     -0.10000000</i>
   <i type="logical" name="LSELFENERGY"> F  </i>
   <i type="logical" name="LSPECTRAL"> F  </i>
   <i type="logical" name="LSPECTRALGW"> F  </i>
   <i type="logical" name="LSINGLES"> F  </i>
   <i type="logical" name="LFERMIGW"> F  </i>
   <i type="logical" name="ODDONLYGW"> F  </i>
   <i type="logical" name="EVENONLYGW"> F  </i>
   <i type="int" name="NKREDLFX">     1</i>
   <i type="int" name="NKREDLFY">     1</i>
   <i type="int" name="NKREDLFZ">     1</i>
   <i type="int" name="MAXMEM">  2800</i>
   <i type="int" name="TELESCOPE">     0</i>
   <i type="int" name="NTAUPAR">    -1</i>
   <i type="int" name="NOMEGAPAR">    -1</i>
   <i name="DAMP_NEWTON">      0.80000001</i>
   <i name="LAMBDA">      1.00000000</i>
  </separator>
  <separator name="External order field" >
   <i name="OFIELD_KAPPA">      0.00000000</i>
   <v name="OFIELD_K">      0.00000000      0.00000000      0.00000000</v>
   <i name="OFIELD_Q6_NEAR">      0.00000000</i>
   <i name="OFIELD_Q6_FAR">      0.00000000</i>
   <i name="OFIELD_A">      0.00000000</i>
  </separator>
  <separator name="optional k-points parameters" >
   <i type="int" name="KPOINTS_OPT_MODE">     1</i>
   <i type="logical" name="LKPOINTS_OPT"> F  </i>
  </separator>
 </parameters>
 <atominfo>
  <atoms>      18 </atoms>
  <types>       3 </types>
  <array name="atoms" >
   <dimension dim="1">ion</dimension>
   <field type="string">element</field>
   <field type="int">atomtype</field>
   <set>
    <rc><c>C </c><c>   1</c></rc>
    <rc><c>C </c><c>   1</c></rc>
    <rc><c>C </c><c>   1</c></rc>
    <rc><c>C </c><c>   1</c></rc>
    <rc><c>C </c><c>   1</c></rc>
    <rc><c>C </c><c>   1</c></rc>
    <rc><c>C </c><c>   1</c></rc>
    <rc><c>C </c><c>   1</c></rc>
    <rc><c>H </c><c>   2</c></rc>
    <rc><c>H </c><c>   2</c></rc>
    <rc><c>H </c><c>   2</c></rc>
    <rc><c>H </c><c>   2</c></rc>
    <rc><c>H </c><c>   2</c></rc>
    <rc><c>H </c><c>   2</c></rc>
    <rc><c>H </c><c>   2</c></rc>
    <rc><c>H </c><c>   2</c></rc>
    <rc><c>N </c><c>   3</c></rc>
    <rc><c>N </c><c>   3</c></rc>
   </set>
  </array>
  <array name="atomtypes" >
   <dimension dim="1">type</dimension>
   <field type="int">atomspertype</field>
   <field type="string">element</field>
   <field>mass</field>
   <field>valence</field>
   <field type="string">pseudopotential</field>
   <set>
    <rc><c>   8</c><c>C </c><c>     12.01100000</c><c>      4.00000000</c><c>  PAW_PBE C 08Apr2002                   </c></rc>
    <rc><c>   8</c><c>H </c><c>      1.00000000</c><c>      1.00000000</c><c>  PAW_PBE H 15Jun2001                   </c></rc>
    <rc><c>   2</c><c>N </c><c>     14.00100000</c><c>      5.00000000</c><c>  PAW_PBE N 08Apr2002                   </c></rc>
   </set>
  </array>
 </atominfo>
 <structure name="initialpos" >
  <crystal>
   <varray name="basis" >
    <v>      15.00000000       0.00000000       0.00000000 </v>
    <v>       0.00000000      15.00000000       0.00000000 </v>
    <v>       0.00000000       0.00000000      15.00000000 </v>
   </varray>
   <i name="volume">   3375.00000000 </i>
   <varray name="rec_basis" >
    <v>       0.06666667       0.00000000       0.00000000 </v>
    <v>       0.00000000       0.06666667       0.00000000 </v>
    <v>       0.00000000       0.00000000       0.06666667 </v>
   </varray>
  </crystal>
  <varray name="positions" >
   <v>       0.37676741       0.54327305       0.57303756 </v>
   <v>       0.37751967       0.45503608       0.55988889 </v>
   <v>       0.46120204       0.40057530       0.55278536 </v>
   <v>       0.45951182       0.59914743       0.58015882 </v>
   <v>       0.54322962       0.54889174       0.54734210 </v>
   <v>       0.54404539       0.45224361       0.58562603 </v>
   <v>       0.62384200       0.59811659       0.57103515 </v>
   <v>       0.62549729       0.40440094       0.56196997 </v>
   <v>       0.31458491       0.41889867       0.55396951 </v>
   <v>       0.45490464       0.33889852       0.59204996 </v>
   <v>       0.47172882       0.37871281       0.48333434 </v>
   <v>       0.31322640       0.57833483       0.57894701 </v>
   <v>       0.46965265       0.62118735       0.64961199 </v>
   <v>       0.45217876       0.66070737       0.54088951 </v>
   <v>       0.54084550       0.54367983       0.47402026 </v>
   <v>       0.54154786       0.45741130       0.65894710 </v>
   <v>       0.68666993       0.63877297       0.59194738 </v>
   <v>       0.68902797       0.36482905       0.54109978 </v>
  </varray>
 </structure>
 <calculation>
  <scstep>
   <time name="dav">    0.54    0.54</time>
   <time name="total">    0.79    0.79</time>
   <energy>
    <i name="alphaZ">      3.36120243 </i>
    <i name="ewald">   3112.03991521 </i>
    <i name="hartreedc">  -4359.50924063 </i>
    <i name="XCdc">    160.65469940 </i>
    <i name="pawpsdc">   1295.11405375 </i>
    <i name="pawaedc">  -1302.12229068 </i>
    <i name="eentropy">     -0.00001825 </i>
    <i name="bandstr">   -318.83061563 </i>
    <i name="atom">   1805.79685712 </i>
    <i name="e_fr_energy">    396.50456273 </i>
    <i name="e_wo_entrp">    396.50458098 </i>
    <i name="e_0_energy">    396.50457186 </i>
   </energy>
  </scstep>
  <scstep>
   <time name="dav">    0.70    0.70</time>
   <time name="total">    0.70    0.70</time>
   <energy>
    <i name="e_fr_energy">     36.10351248 </i>
    <i name="e_wo_entrp">     36.10351248 </i>
    <i name="e_0_energy">     36.10351248 </i>
   </energy>
  </scstep>
  <scstep>
   <time name="dav">    0.52    0.52</time>
   <time name="total">    0.52    0.52</time>
   <energy>
    <i name="e_fr_energy">   -114.24314657 </i>
    <i name="e_wo_entrp">   -114.24314657 </i>
    <i name="e_0_energy">   -114.24314657 </i>
   </energy>
  </scstep>
  <scstep>
   <time name="dav">    0.67    0.67</time>
   <time name="total">    0.67    0.67</time>
   <energy>
    <i name="e_fr_energy">   -127.06024197 </i>
    <i name="e_wo_entrp">   -127.06024197 </i>
    <i name="e_0_energy">   -127.06024197 </i>
   </energy>
  </scstep>
  <scstep>
   <time name="dav">    0.59    0.59</time>
   <time name="total">    0.66    0.66</time>
   <energy>
    <i name="e_fr_energy">   -127.23088916 </i>
    <i name="e_wo_entrp">   -127.23088916 </i>
    <i name="e_0_energy">   -127.23088916 </i>
   </energy>
  </scstep>
  <scstep>
   <time name="diag">    0.09    0.09</time>
   <time name="diis">    0.59    0.59</time>
   <time name="orth">    0.00    0.00</time>
   <time name="total">    1.05    1.06</time>
   <energy>
    <i name="e_fr_energy">   -118.52186703 </i>
    <i name="e_wo_entrp">   -118.52186703 </i>
    <i name="e_0_energy">   -118.52186703 </i>
   </energy>
  </scstep>
  <scstep>
   <time name="diag">    0.08    0.08</time>
   <time name="diis">    0.60    0.70</time>
   <time name="orth">    0.00    0.00</time>
   <time name="total">    1.05    1.17</time>
   <energy>
    <i name="e_fr_energy">   -116.44049520 </i>
    <i name="e_wo_entrp">   -116.44049520 </i>
    <i name="e_0_energy">   -116.44049520 </i>
   </energy>
  </scstep>
  <scstep>
   <time name="diag">    0.10    0.10</time>
   <time name="diis">    0.77    0.80</time>
   <time name="orth">    0.00    0.01</time>
   <time name="total">    1.33    1.37</time>
   <energy>
    <i name="e_fr_energy">   -116.19464186 </i>
    <i name="e_wo_entrp">   -116.19464186 </i>
    <i name="e_0_energy">   -116.19464186 </i>
   </energy>
  </scstep>
  <scstep>
   <time name="diag">    0.12    0.12</time>
   <time name="diis">    0.78    0.79</time>
   <time name="orth">    0.01    0.01</time>
   <time name="total">    1.33    1.37</time>
   <energy>
    <i name="e_fr_energy">   -116.10423350 </i>
    <i name="e_wo_entrp">   -116.10423350 </i>
    <i name="e_0_energy">   -116.10423350 </i>
   </energy>
  </scstep>
  <scstep>
   <time name="diag">    0.13    0.14</time>
   <time name="diis">    0.85    0.95</time>
   <time name="orth">    0.03    0.03</time>
   <time name="total">    1.96    2.06</time>
   <energy>
    <i name="e_fr_energy">   -116.11044080 </i>
    <i name="e_wo_entrp">   -116.11044080 </i>
    <i name="e_0_energy">   -116.11044080 </i>
   </energy>
  </scstep>
  <scstep>
   <time name="diag">    0.14    0.14</time>
   <time name="diis">    0.73    0.73</time>
   <time name="orth">    0.00    0.00</time>
   <time name="total">    1.31    1.32</time>
   <energy>
    <i name="e_fr_energy">   -116.12373508 </i>
    <i name="e_wo_entrp">   -116.12373508 </i>
    <i name="e_0_energy">   -116.12373508 </i>
   </energy>
  </scstep>
  <scstep>
   <time name="diag">    0.12    0.12</time>
   <time name="diis">    0.72    0.73</time>
   <time name="orth">    0.00    0.00</time>
   <time name="total">    1.22    1.22</time>
   <energy>
    <i name="e_fr_energy">   -116.12174145 </i>
    <i name="e_wo_entrp">   -116.12174145 </i>
    <i name="e_0_energy">   -116.12174145 </i>
   </energy>
  </scstep>
  <scstep>
   <time name="diag">    0.09    0.09</time>
   <time name="diis">    0.68    0.68</time>
   <time name="orth">    0.00    0.00</time>
   <time name="total">    1.08    1.08</time>
   <energy>
    <i name="e_fr_energy">   -116.13589105 </i>
    <i name="e_wo_entrp">   -116.13589105 </i>
    <i name="e_0_energy">   -116.13589105 </i>
   </energy>
  </scstep>
  <scstep>
   <time name="diag">    0.11    0.11</time>
   <time name="diis">    0.93    0.94</time>
   <time name="orth">    0.01    0.01</time>
   <time name="total">    1.46    1.46</time>
   <energy>
    <i name="e_fr_energy">   -116.13664036 </i>
    <i name="e_wo_entrp">   -116.13664036 </i>
    <i name="e_0_energy">   -116.13664036 </i>
   </energy>
  </scstep>
  <scstep>
   <time name="diag">    0.12    0.12</time>
   <time name="diis">    0.87    0.87</time>
   <time name="orth">    0.00    0.00</time>
   <time name="total">    1.42    1.43</time>
   <energy>
    <i name="e_fr_energy">   -116.14530367 </i>
    <i name="e_wo_entrp">   -116.14530367 </i>
    <i name="e_0_energy">   -116.14530367 </i>
   </energy>
  </scstep>
  <scstep>
   <time name="diag">    0.13    0.13</time>
   <time name="diis">    0.89    0.89</time>
   <time name="orth">    0.00    0.00</time>
   <time name="total">    1.45    1.45</time>
   <energy>
    <i name="e_fr_energy">   -116.14730203 </i>
    <i name="e_wo_entrp">   -116.14730203 </i>
    <i name="e_0_energy">   -116.14730203 </i>
   </energy>
  </scstep>
  <scstep>
   <time name="diag">    0.11    0.11</time>
   <time name="diis">    0.74    0.74</time>
   <time name="orth">    0.01    0.01</time>
   <time name="total">    1.25    1.25</time>
   <energy>
    <i name="e_fr_energy">   -116.14961356 </i>
    <i name="e_wo_entrp">   -116.14961356 </i>
    <i name="e_0_energy">   -116.14961356 </i>
   </energy>
  </scstep>
  <scstep>
   <time name="diag">    0.09    0.09</time>
   <time name="diis">    0.78    0.78</time>
   <time name="orth">    0.00    0.00</time>
   <time name="total">    1.24    1.24</time>
   <energy>
    <i name="e_fr_energy">   -116.15002372 </i>
    <i name="e_wo_entrp">   -116.15002372 </i>
    <i name="e_0_energy">   -116.15002372 </i>
   </energy>
  </scstep>
  <scstep>
   <time name="diag">    0.10    0.10</time>
   <time name="diis">    0.69    0.72</time>
   <time name="orth">    0.00    0.00</time>
   <time name="total">    1.19    1.23</time>
   <energy>
    <i name="e_fr_energy">   -116.15049692 </i>
    <i name="e_wo_entrp">   -116.15049692 </i>
    <i name="e_0_energy">   -116.15049692 </i>
   </energy>
  </scstep>
  <scstep>
   <time name="diag">    0.09    0.09</time>
   <time name="diis">    0.75    0.77</time>
   <time name="orth">    0.00    0.01</time>
   <time name="total">    1.11    1.14</time>
   <energy>
    <i name="alphaZ">      3.36120243 </i>
    <i name="ewald">   3112.03991521 </i>
    <i name="hartreedc">  -4562.50091199 </i>
    <i name="XCdc">    170.70449636 </i>
    <i name="pawpsdc">   4354.22967395 </i>
    <i name="pawaedc">  -4362.53758591 </i>
    <i name="eentropy">     -0.00000000 </i>
    <i name="bandstr">   -637.24418248 </i>
    <i name="atom">   1805.79685712 </i>
    <i name="e_fr_energy">   -116.15053530 </i>
    <i name="e_wo_entrp">   -116.15053530 </i>
    <i name="e_0_energy">   -116.15053530 </i>
   </energy>
  </scstep>
  <structure>
   <crystal>
    <varray name="basis" >
     <v>      15.00000000       0.00000000       0.00000000 </v>
     <v>       0.00000000      15.00000000       0.00000000 </v>
     <v>       0.00000000       0.00000000      15.00000000 </v>
    </varray>
    <i name="volume">   3375.00000000 </i>
    <varray name="rec_basis" >
     <v>       0.06666667       0.00000000       0.00000000 </v>
     <v>       0.00000000       0.06666667       0.00000000 </v>
     <v>       0.00000000       0.00000000       0.06666667 </v>
    </varray>
   </crystal>
   <varray name="positions" >
    <v>       0.37676741       0.54327305       0.57303756 </v>
    <v>       0.37751967       0.45503608       0.55988889 </v>
    <v>       0.46120204       0.40057530       0.55278536 </v>
    <v>       0.45951182       0.59914743       0.58015882 </v>
    <v>       0.54322962       0.54889174       0.54734210 </v>
    <v>       0.54404539       0.45224361       0.58562603 </v>
    <v>       0.62384200       0.59811659       0.57103515 </v>
    <v>       0.62549729       0.40440094       0.56196997 </v>
    <v>       0.31458491       0.41889867       0.55396951 </v>
    <v>       0.45490464       0.33889852       0.59204996 </v>
    <v>       0.47172882       0.37871281       0.48333434 </v>
    <v>       0.31322640       0.57833483       0.57894701 </v>
    <v>       0.46965265       0.62118735       0.64961199 </v>
    <v>       0.45217876       0.66070737       0.54088951 </v>
    <v>       0.54084550       0.54367983       0.47402026 </v>
    <v>       0.54154786       0.45741130       0.65894710 </v>
    <v>       0.68666993       0.63877297       0.59194738 </v>
    <v>       0.68902797       0.36482905       0.54109978 </v>
   </varray>
  </structure>
  <varray name="forces" >
   <v>       0.04029296      -0.00876975      -0.00581903 </v>
   <v>       0.03975823       0.00977426       0.00594383 </v>
   <v>      -0.00254713       0.04910014       0.02053596 </v>
   <v>      -0.00243979      -0.04977216      -0.01989945 </v>
   <v>      -0.00315944       0.00478781       0.04123426 </v>
   <v>      -0.00361327      -0.00510604      -0.04083545 </v>
   <v>      -0.14747681      -0.09499270      -0.05108815 </v>
   <v>      -0.14938949       0.09226407       0.05052288 </v>
   <v>      -0.02805884      -0.01359776      -0.00567394 </v>
   <v>      -0.00543029      -0.02419708       0.01481310 </v>
   <v>       0.00894364      -0.00676840      -0.03394857 </v>
   <v>      -0.02874609       0.01270390       0.00551957 </v>
   <v>       0.00844862       0.00693312       0.03403586 </v>
   <v>      -0.00598109       0.02370032      -0.01464643 </v>
   <v>      -0.00110191      -0.00628382      -0.03112880 </v>
   <v>      -0.00118009       0.00622648       0.03088855 </v>
   <v>       0.14005252       0.09458985       0.04505706 </v>
   <v>       0.14162826      -0.09059227      -0.04551126 </v>
  </varray>
  <varray name="stress" >
   <v>      -1.11048877       0.00059665      -0.00043186 </v>
   <v>       0.00059665      -1.12014999       0.03759765 </v>
   <v>      -0.00043186       0.03759765      -1.11942345 </v>
  </varray>
  <energy>
   <i name="e_fr_energy">   -116.39315092 </i>
   <i name="e_wo_entrp">   -116.39315092 </i>
   <i name="e_0_energy">   -116.39315092 </i>
  </energy>
  <time name="totalsc">   24.11   24.56</time>
  <eigenvalues>
   <array>
    <dimension dim="1">band</dimension>
    <dimension dim="2">kpoint</dimension>
    <dimension dim="3">spin</dimension>
    <field>eigene</field>
    <field>occ</field>
    <set>
     <set comment="spin 1">
      <set comment="kpoint 1">
       <r>  -22.8342    1.0000 </r>
       <r>  -22.4714    1.0000 </r>
       <r>  -21.7377    1.0000 </r>
       <r>  -19.6550    1.0000 </r>
       <r>  -19.6120    1.0000 </r>
       <r>  -16.8157    1.0000 </r>
       <r>  -16.3753    1.0000 </r>
       <r>  -13.9259    1.0000 </r>
       <r>  -13.7372    1.0000 </r>
       <r>  -12.8957    1.0000 </r>
       <r>  -11.8415    1.0000 </r>
       <r>  -11.4926    1.0000 </r>
       <r>  -11.0541    1.0000 </r>
       <r>  -10.5315    1.0000 </r>
       <r>  -10.4221    1.0000 </r>
       <r>   -9.5849    1.0000 </r>
       <r>   -9.2984    1.0000 </r>
       <r>   -9.0101    1.0000 </r>
       <r>   -8.4631    1.0000 </r>
       <r>   -8.3870    1.0000 </r>
       <r>   -8.2702    1.0000 </r>
       <r>   -7.9977    1.0000 </r>
       <r>   -7.8540    1.0000 </r>
       <r>   -7.8050    1.0000 </r>
       <r>   -6.5498    1.0000 </r>
       <r>   -1.3281    0.0000 </r>
       <r>   -0.7869    0.0000 </r>
       <r>   -0.7179    0.0000 </r>
       <r>   -0.6211    0.0000 </r>
       <r>   -0.2640    0.0000 </r>
       <r>   -0.2372    0.0000 </r>
       <r>   -0.1358    0.0000 </r>
       <r>   -0.0332    0.0000 </r>
       <r>    0.1876    0.0000 </r>
       <r>    0.3690    0.0000 </r>
       <r>    0.5360    0.0000 </r>
       <r>    0.6162    0.0000 </r>
       <r>    0.7582    0.0000 </r>
       <r>    0.8151    0.0000 </r>
       <r>    0.9150    0.0000 </r>
      </set>
     </set>
    </set>
   </array>
  </eigenvalues>
  <separator name="orbital magnetization" >
   <v name="MAGDIPOLOUT">      0.00000000      0.00000000      0.00000000</v>
  </separator>
  <dos>
   <i name="efermi">     -6.25181709 </i>
   <total>
    <array>
     <dimension dim="1">gridpoints</dimension>
     <dimension dim="2">spin</dimension>
     <field>energy</field>
     <field>total</field>
     <field>integrated</field>
     <set>
      <set comment="spin 1">
       <r>   -24.0217     0.0000     0.0000 </r>
       <r>   -23.9346     0.0000     0.0000 </r>
       <r>   -23.8475     0.0000     0.0000 </r>
       <r>   -23.7604     0.0000     0.0000 </r>
       <r>   -23.6734     0.0000     0.0000 </r>
       <r>   -23.5863     0.0000     0.0000 </r>
       <r>   -23.4992     0.0000     0.0000 </r>
       <r>   -23.4121     0.0000     0.0000 </r>
       <r>   -23.3250     0.0000     0.0000 </r>
       <r>   -23.2380     0.0000     0.0000 </r>
       <r>   -23.1509     0.0000     0.0000 </r>
       <r>   -23.0638     0.0000     0.0000 </r>
       <r>   -22.9767     0.0006     0.0001 </r>
       <r>   -22.8896     1.3433     0.1170 </r>
       <r>   -22.8026    17.3693     1.6296 </r>
       <r>   -22.7155     4.2451     1.9992 </r>
       <r>   -22.6284     0.0091     2.0000 </r>
       <r>   -22.5413     0.5509     2.0480 </r>
       <r>   -22.4542    15.2124     3.3727 </r>
       <r>   -22.3672     7.1672     3.9968 </r>
       <r>   -22.2801     0.0367     4.0000 </r>
       <r>   -22.1930     0.0000     4.0000 </r>
       <r>   -22.1059     0.0000     4.0000 </r>
       <r>   -22.0188     0.0000     4.0000 </r>
       <r>   -21.9318     0.0000     4.0000 </r>
       <r>   -21.8447     0.0284     4.0025 </r>
       <r>   -21.7576     6.5490     4.5728 </r>
       <r>   -21.6705    15.7289     5.9424 </r>
       <r>   -21.5834     0.6609     6.0000 </r>
       <r>   -21.4964     0.0001     6.0000 </r>
       <r>   -21.4093     0.0000     6.0000 </r>
       <r>   -21.3222     0.0000     6.0000 </r>
       <r>   -21.2351     0.0000     6.0000 </r>
       <r>   -21.1480     0.0000     6.0000 </r>
       <r>   -21.0610     0.0000     6.0000 </r>
       <r>   -20.9739     0.0000     6.0000 </r>
       <r>   -20.8868     0.0000     6.0000 </r>
       <r>   -20.7997     0.0000     6.0000 </r>
       <r>   -20.7126     0.0000     6.0000 </r>
       <r>   -20.6255     0.0000     6.0000 </r>
       <r>   -20.5385     0.0000     6.0000 </r>
       <r>   -20.4514     0.0000     6.0000 </r>
       <r>   -20.3643     0.0000     6.0000 </r>
       <r>   -20.2772     0.0000     6.0000 </r>
       <r>   -20.1901     0.0000     6.0000 </r>
       <r>   -20.1031     0.0000     6.0000 </r>
       <r>   -20.0160     0.0000     6.0000 </r>
       <r>   -19.9289     0.0000     6.0000 </r>
       <r>   -19.8418     0.0000     6.0000 </r>
       <r>   -19.7547     0.0555     6.0048 </r>
       <r>   -19.6677     9.5387     6.8355 </r>
       <r>   -19.5806    31.6439     9.5910 </r>
       <r>   -19.4935     4.6872     9.9992 </r>
       <r>   -19.4064     0.0092    10.0000 </r>
       <r>   -19.3193     0.0000    10.0000 </r>
       <r>   -19.2323     0.0000    10.0000 </r>
       <r>   -19.1452     0.0000    10.0000 </r>
       <r>   -19.0581     0.0000    10.0000 </r>
       <r>   -18.9710     0.0000    10.0000 </r>
       <r>   -18.8839     0.0000    10.0000 </r>
       <r>   -18.7969     0.0000    10.0000 </r>
       <r>   -18.7098     0.0000    10.0000 </r>
       <r>   -18.6227     0.0000    10.0000 </r>
       <r>   -18.5356     0.0000    10.0000 </r>
       <r>   -18.4485     0.0000    10.0000 </r>
       <r>   -18.3615     0.0000    10.0000 </r>
       <r>   -18.2744     0.0000    10.0000 </r>
       <r>   -18.1873     0.0000    10.0000 </r>
       <r>   -18.1002     0.0000    10.0000 </r>
       <r>   -18.0131     0.0000    10.0000 </r>
       <r>   -17.9261     0.0000    10.0000 </r>
       <r>   -17.8390     0.0000    10.0000 </r>
       <r>   -17.7519     0.0000    10.0000 </r>
       <r>   -17.6648     0.0000    10.0000 </r>
       <r>   -17.5777     0.0000    10.0000 </r>
       <r>   -17.4907     0.0000    10.0000 </r>
       <r>   -17.4036     0.0000    10.0000 </r>
       <r>   -17.3165     0.0000    10.0000 </r>
       <r>   -17.2294     0.0000    10.0000 </r>
       <r>   -17.1423     0.0000    10.0000 </r>
       <r>   -17.0552     0.0000    10.0000 </r>
       <r>   -16.9682     0.0002    10.0000 </r>
       <r>   -16.8811     0.7376    10.0643 </r>
       <r>   -16.7940    16.0264    11.4598 </r>
       <r>   -16.7069     6.1789    11.9979 </r>
       <r>   -16.6198     0.0241    12.0000 </r>
       <r>   -16.5328     0.0001    12.0000 </r>
       <r>   -16.4457     0.5356    12.0467 </r>
       <r>   -16.3586    15.1301    13.3642 </r>
       <r>   -16.2715     7.2633    13.9967 </r>
       <r>   -16.1844     0.0381    14.0000 </r>
       <r>   -16.0974     0.0000    14.0000 </r>
       <r>   -16.0103     0.0000    14.0000 </r>
       <r>   -15.9232     0.0000    14.0000 </r>
       <r>   -15.8361     0.0000    14.0000 </r>
       <r>   -15.7490     0.0000    14.0000 </r>
       <r>   -15.6620     0.0000    14.0000 </r>
       <r>   -15.5749     0.0000    14.0000 </r>
       <r>   -15.4878     0.0000    14.0000 </r>
       <r>   -15.4007     0.0000    14.0000 </r>
       <r>   -15.3136     0.0000    14.0000 </r>
       <r>   -15.2266     0.0000    14.0000 </r>
       <r>   -15.1395     0.0000    14.0000 </r>
       <r>   -15.0524     0.0000    14.0000 </r>
       <r>   -14.9653     0.0000    14.0000 </r>
       <r>   -14.8782     0.0000    14.0000 </r>
       <r>   -14.7912     0.0000    14.0000 </r>
       <r>   -14.7041     0.0000    14.0000 </r>
       <r>   -14.6170     0.0000    14.0000 </r>
       <r>   -14.5299     0.0000    14.0000 </r>
       <r>   -14.4428     0.0000    14.0000 </r>
       <r>   -14.3558     0.0000    14.0000 </r>
       <r>   -14.2687     0.0000    14.0000 </r>
       <r>   -14.1816     0.0000    14.0000 </r>
       <r>   -14.0945     0.0000    14.0000 </r>
       <r>   -14.0074     0.2423    14.0211 </r>
       <r>   -13.9203    12.6724    15.1246 </r>
       <r>   -13.8333    10.0269    15.9978 </r>
       <r>   -13.7462     9.1988    16.7988 </r>
       <r>   -13.6591    13.4812    17.9728 </r>
       <r>   -13.5720     0.3127    18.0000 </r>
       <r>   -13.4849     0.0000    18.0000 </r>
       <r>   -13.3979     0.0000    18.0000 </r>
       <r>   -13.3108     0.0000    18.0000 </r>
       <r>   -13.2237     0.0000    18.0000 </r>
       <r>   -13.1366     0.0000    18.0000 </r>
       <r>   -13.0495     0.0002    18.0000 </r>
       <r>   -12.9625     0.6752    18.0588 </r>
       <r>   -12.8754    15.7877    19.4336 </r>
       <r>   -12.7883     6.4767    19.9976 </r>
       <r>   -12.7012     0.0275    20.0000 </r>
       <r>   -12.6141     0.0000    20.0000 </r>
       <r>   -12.5271     0.0000    20.0000 </r>
       <r>   -12.4400     0.0000    20.0000 </r>
       <r>   -12.3529     0.0000    20.0000 </r>
       <r>   -12.2658     0.0000    20.0000 </r>
       <r>   -12.1787     0.0000    20.0000 </r>
       <r>   -12.0917     0.0000    20.0000 </r>
       <r>   -12.0046     0.0000    20.0000 </r>
       <r>   -11.9175     0.3638    20.0317 </r>
       <r>   -11.8304    13.9554    21.2469 </r>
       <r>   -11.7433     8.5851    21.9945 </r>
       <r>   -11.6563     0.0629    22.0000 </r>
       <r>   -11.5692     0.3494    22.0304 </r>
       <r>   -11.4821    13.8299    23.2347 </r>
       <r>   -11.3950     8.7218    23.9942 </r>
       <r>   -11.3079     0.0661    24.0000 </r>
       <r>   -11.2209     0.0000    24.0000 </r>
       <r>   -11.1338     0.2787    24.0243 </r>
       <r>   -11.0467    13.1168    25.1665 </r>
       <r>   -10.9596     9.4855    25.9925 </r>
       <r>   -10.8725     0.0863    26.0000 </r>
       <r>   -10.7854     0.0000    26.0000 </r>
       <r>   -10.6984     0.0000    26.0000 </r>
       <r>   -10.6113     0.2756    26.0240 </r>
       <r>   -10.5242    13.1259    27.1670 </r>
       <r>   -10.4371    17.1808    28.6631 </r>
       <r>   -10.3500    14.8749    29.9584 </r>
       <r>   -10.2630     0.4772    30.0000 </r>
       <r>   -10.1759     0.0001    30.0000 </r>
       <r>   -10.0888     0.0000    30.0000 </r>
       <r>   -10.0017     0.0000    30.0000 </r>
       <r>    -9.9146     0.0000    30.0000 </r>
       <r>    -9.8276     0.0000    30.0000 </r>
       <r>    -9.7405     0.0001    30.0000 </r>
       <r>    -9.6534     0.6045    30.0527 </r>
       <r>    -9.5663    15.4792    31.4006 </r>
       <r>    -9.4792     6.8512    31.9972 </r>
       <r>    -9.3922     0.1244    32.0080 </r>
       <r>    -9.3051     9.6791    32.8509 </r>
       <r>    -9.2180    12.9329    33.9771 </r>
       <r>    -9.1309     0.2703    34.0006 </r>
       <r>    -9.0438     3.8962    34.3399 </r>
       <r>    -8.9568    17.5551    35.8686 </r>
       <r>    -8.8697     1.5079    35.9999 </r>
       <r>    -8.7826     0.0008    36.0000 </r>
       <r>    -8.6955     0.0000    36.0000 </r>
       <r>    -8.6084     0.0005    36.0000 </r>
       <r>    -8.5214     1.1408    36.0994 </r>
       <r>    -8.4343    19.1409    37.7662 </r>
       <r>    -8.3472    22.9954    39.7686 </r>
       <r>    -8.2601    16.7103    41.2238 </r>
       <r>    -8.1730     8.8451    41.9940 </r>
       <r>    -8.0860     0.2135    42.0126 </r>
       <r>    -7.9989    11.0443    42.9743 </r>
       <r>    -7.9118    12.8043    44.0893 </r>
       <r>    -7.8247    23.8776    46.1686 </r>
       <r>    -7.7376    20.3671    47.9422 </r>
       <r>    -7.6505     0.6637    48.0000 </r>
       <r>    -7.5635     0.0001    48.0000 </r>
       <r>    -7.4764     0.0000    48.0000 </r>
       <r>    -7.3893     0.0000    48.0000 </r>
       <r>    -7.3022     0.0000    48.0000 </r>
       <r>    -7.2151     0.0000    48.0000 </r>
       <r>    -7.1281     0.0000    48.0000 </r>
       <r>    -7.0410     0.0000    48.0000 </r>
       <r>    -6.9539     0.0000    48.0000 </r>
       <r>    -6.8668     0.0000    48.0000 </r>
       <r>    -6.7797     0.0000    48.0000 </r>
       <r>    -6.6927     0.0006    48.0001 </r>
       <r>    -6.6056     1.3149    48.1146 </r>
       <r>    -6.5185    17.3319    49.6238 </r>
       <r>    -6.4314     4.3105    49.9992 </r>
       <r>    -6.3443     0.0093    50.0000 </r>
       <r>    -6.2573     0.0000    50.0000 </r>
       <r>    -6.1702     0.0000    50.0000 </r>
       <r>    -6.0831     0.0000    50.0000 </r>
       <r>    -5.9960     0.0000    50.0000 </r>
       <r>    -5.9089     0.0000    50.0000 </r>
       <r>    -5.8219     0.0000    50.0000 </r>
       <r>    -5.7348     0.0000    50.0000 </r>
       <r>    -5.6477     0.0000    50.0000 </r>
       <r>    -5.5606     0.0000    50.0000 </r>
       <r>    -5.4735     0.0000    50.0000 </r>
       <r>    -5.3865     0.0000    50.0000 </r>
       <r>    -5.2994     0.0000    50.0000 </r>
       <r>    -5.2123     0.0000    50.0000 </r>
       <r>    -5.1252     0.0000    50.0000 </r>
       <r>    -5.0381     0.0000    50.0000 </r>
       <r>    -4.9511     0.0000    50.0000 </r>
       <r>    -4.8640     0.0000    50.0000 </r>
       <r>    -4.7769     0.0000    50.0000 </r>
       <r>    -4.6898     0.0000    50.0000 </r>
       <r>    -4.6027     0.0000    50.0000 </r>
       <r>    -4.5156     0.0000    50.0000 </r>
       <r>    -4.4286     0.0000    50.0000 </r>
       <r>    -4.3415     0.0000    50.0000 </r>
       <r>    -4.2544     0.0000    50.0000 </r>
       <r>    -4.1673     0.0000    50.0000 </r>
       <r>    -4.0802     0.0000    50.0000 </r>
       <r>    -3.9932     0.0000    50.0000 </r>
       <r>    -3.9061     0.0000    50.0000 </r>
       <r>    -3.8190     0.0000    50.0000 </r>
       <r>    -3.7319     0.0000    50.0000 </r>
       <r>    -3.6448     0.0000    50.0000 </r>
       <r>    -3.5578     0.0000    50.0000 </r>
       <r>    -3.4707     0.0000    50.0000 </r>
       <r>    -3.3836     0.0000    50.0000 </r>
       <r>    -3.2965     0.0000    50.0000 </r>
       <r>    -3.2094     0.0000    50.0000 </r>
       <r>    -3.1224     0.0000    50.0000 </r>
       <r>    -3.0353     0.0000    50.0000 </r>
       <r>    -2.9482     0.0000    50.0000 </r>
       <r>    -2.8611     0.0000    50.0000 </r>
       <r>    -2.7740     0.0000    50.0000 </r>
       <r>    -2.6870     0.0000    50.0000 </r>
       <r>    -2.5999     0.0000    50.0000 </r>
       <r>    -2.5128     0.0000    50.0000 </r>
       <r>    -2.4257     0.0000    50.0000 </r>
       <r>    -2.3386     0.0000    50.0000 </r>
       <r>    -2.2516     0.0000    50.0000 </r>
       <r>    -2.1645     0.0000    50.0000 </r>
       <r>    -2.0774     0.0000    50.0000 </r>
       <r>    -1.9903     0.0000    50.0000 </r>
       <r>    -1.9032     0.0000    50.0000 </r>
       <r>    -1.8162     0.0000    50.0000 </r>
       <r>    -1.7291     0.0000    50.0000 </r>
       <r>    -1.6420     0.0000    50.0000 </r>
       <r>    -1.5549     0.0000    50.0000 </r>
       <r>    -1.4678     0.0009    50.0001 </r>
       <r>    -1.3807     1.5668    50.1365 </r>
       <r>    -1.2937    17.6100    51.6700 </r>
       <r>    -1.2066     3.7828    51.9994 </r>
       <r>    -1.1195     0.0068    52.0000 </r>
       <r>    -1.0324     0.0000    52.0000 </r>
       <r>    -0.9453     0.0001    52.0000 </r>
       <r>    -0.8583     0.5012    52.0437 </r>
       <r>    -0.7712    16.4399    53.4752 </r>
       <r>    -0.6841    25.9127    55.7317 </r>
       <r>    -0.5970    20.3498    57.5038 </r>
       <r>    -0.5099     5.6789    57.9983 </r>
       <r>    -0.4229     0.0192    58.0000 </r>
       <r>    -0.3358     0.5474    58.0477 </r>
       <r>    -0.2487    23.3648    60.0823 </r>
       <r>    -0.1616    26.9472    62.4289 </r>
       <r>    -0.0745    19.8689    64.1591 </r>
       <r>     0.0125    18.8927    65.8042 </r>
       <r>     0.0996     2.3935    66.0127 </r>
       <r>     0.1867    11.1109    66.9802 </r>
       <r>     0.2738    11.6227    67.9923 </r>
       <r>     0.3609     9.4876    68.8185 </r>
       <r>     0.4479    13.4212    69.9872 </r>
       <r>     0.5350    11.6269    70.9997 </r>
       <r>     0.6221    24.3269    73.1181 </r>
       <r>     0.7092    11.9623    74.1598 </r>
       <r>     0.7963    24.7360    76.3138 </r>
       <r>     0.8833    22.9986    78.3166 </r>
       <r>     0.9704    17.9879    79.8830 </r>
       <r>     1.0575     1.3434    79.9999 </r>
       <r>     1.1446     0.0006    80.0000 </r>
       <r>     1.2317     0.0000    80.0000 </r>
       <r>     1.3187     0.0000    80.0000 </r>
       <r>     1.4058     0.0000    80.0000 </r>
       <r>     1.4929     0.0000    80.0000 </r>
       <r>     1.5800     0.0000    80.0000 </r>
       <r>     1.6671     0.0000    80.0000 </r>
       <r>     1.7542     0.0000    80.0000 </r>
       <r>     1.8412     0.0000    80.0000 </r>
       <r>     1.9283     0.0000    80.0000 </r>
       <r>     2.0154     0.0000    80.0000 </r>
       <r>     2.1025     0.0000    80.0000 </r>
      </set>
     </set>
    </array>
   </total>
  </dos>
 </calculation>
 <structure name="finalpos" >
  <crystal>
   <varray name="basis" >
    <v>      15.00000000       0.00000000       0.00000000 </v>
    <v>       0.00000000      15.00000000       0.00000000 </v>
    <v>       0.00000000       0.00000000      15.00000000 </v>
   </varray>
   <i name="volume">   3375.00000000 </i>
   <varray name="rec_basis" >
    <v>       0.06666667       0.00000000       0.00000000 </v>
    <v>       0.00000000       0.06666667       0.00000000 </v>
    <v>       0.00000000       0.00000000       0.06666667 </v>
   </varray>
  </crystal>
  <varray name="positions" >
   <v>       0.37676741       0.54327305       0.57303756 </v>
   <v>       0.37751967       0.45503608       0.55988889 </v>
   <v>       0.46120204       0.40057530       0.55278536 </v>
   <v>       0.45951182       0.59914743       0.58015882 </v>
   <v>       0.54322962       0.54889174       0.54734210 </v>
   <v>       0.54404539       0.45224361       0.58562603 </v>
   <v>       0.62384200       0.59811659       0.57103515 </v>
   <v>       0.62549729       0.40440094       0.56196997 </v>
   <v>       0.31458491       0.41889867       0.55396951 </v>
   <v>       0.45490464       0.33889852       0.59204996 </v>
   <v>       0.47172882       0.37871281       0.48333434 </v>
   <v>       0.31322640       0.57833483       0.57894701 </v>
   <v>       0.46965265       0.62118735       0.64961199 </v>
   <v>       0.45217876       0.66070737       0.54088951 </v>
   <v>       0.54084550       0.54367983       0.47402026 </v>
   <v>       0.54154786       0.45741130       0.65894710 </v>
   <v>       0.68666993       0.63877297       0.59194738 </v>
   <v>       0.68902797       0.36482905       0.54109978 </v>
  </varray>
 </structure>
</modeling>
