   18   18    1    1
  0.1875000E+03  0.1500000E-08  0.1500000E-08  0.1500000E-08  0.5000000E-15
  1.000000000000000E-004
  CAR 
 unknown system                          
     50      1     40
 
  0.0000000E+00  0.0000000E+00  0.0000000E+00  0.1000000E+01
      1        -22.834229   1.000000
      2        -22.471407   1.000000
      3        -21.737657   1.000000
      4        -19.654982   1.000000
      5        -19.612040   1.000000
      6        -16.815663   1.000000
      7        -16.375346   1.000000
      8        -13.925893   1.000000
      9        -13.737175   1.000000
     10        -12.895653   1.000000
     11        -11.841537   1.000000
     12        -11.492649   1.000000
     13        -11.054121   1.000000
     14        -10.531486   1.000000
     15        -10.422095   1.000000
     16         -9.584891   1.000000
     17         -9.298433   1.000000
     18         -9.010096   1.000000
     19         -8.463068   1.000000
     20         -8.387041   1.000000
     21         -8.270176   1.000000
     22         -7.997731   1.000000
     23         -7.853957   1.000000
     24         -7.804975   1.000000
     25         -6.549789   1.000000
     26         -1.328109   0.000000
     27         -0.786915   0.000000
     28         -0.717878   0.000000
     29         -0.621118   0.000000
     30         -0.264011   0.000000
     31         -0.237245   0.000000
     32         -0.135778   0.000000
     33         -0.033204   0.000000
     34          0.187577   0.000000
     35          0.368974   0.000000
     36          0.535997   0.000000
     37          0.616188   0.000000
     38          0.758204   0.000000
     39          0.815073   0.000000
     40          0.915011   0.000000
