unknown system                          
           1
    15.000000    0.000000    0.000000
     0.000000   15.000000    0.000000
     0.000000    0.000000   15.000000
   C    H    N 
     8     8     2
Direct configuration=     1
   0.37676741  0.54327305  0.57303756
   0.37751967  0.45503608  0.55988889
   0.46120204  0.40057530  0.55278536
   0.45951182  0.59914743  0.58015882
   0.54322962  0.54889174  0.54734210
   0.54404539  0.45224361  0.58562603
   0.62384200  0.59811659  0.57103515
   0.62549729  0.40440094  0.56196997
   0.31458491  0.41889867  0.55396951
   0.45490464  0.33889852  0.59204996
   0.47172882  0.37871281  0.48333434
   0.31322640  0.57833483  0.57894701
   0.46965265  0.62118735  0.64961199
   0.45217876  0.66070737  0.54088951
   0.54084550  0.54367983  0.47402026
   0.54154786  0.45741130  0.65894710
   0.68666993  0.63877297  0.59194738
   0.68902797  0.36482905  0.54109978
