   18   18 5000    1
  0.1875000E+03  0.1500000E-08  0.1500000E-08  0.1500000E-08  0.1000000E-15
  1.000000000000000E-004
  CAR 
 unknown system                          
     50      1     35
 
  0.0000000E+00  0.0000000E+00  0.0000000E+00  0.1000000E+01
      1        -22.826003   1.000000
      2        -22.483149   1.000000
      3        -21.705629   1.000000
      4        -19.706039   1.000000
      5        -19.570617   1.000000
      6        -16.753208   1.000000
      7        -16.417629   1.000000
      8        -13.767264   1.000000
      9        -13.650196   1.000000
     10        -13.198873   1.000000
     11        -11.677825   1.000000
     12        -11.524504   1.000000
     13        -11.176976   1.000000
     14        -10.425230   1.000000
     15        -10.391558   1.000000
     16         -9.694277   1.000000
     17         -9.209193   1.000000
     18         -8.890356   1.000000
     19         -8.478901   1.000000
     20         -8.442964   1.000000
     21         -8.255505   1.000000
     22         -8.061129   1.000000
     23         -7.892204   1.000000
     24         -7.788391   1.000000
     25         -6.538332   1.000000
     26         -1.329443   0.000000
     27         -1.006830   0.000000
     28         -0.758026   0.000000
     29         -0.667563   0.000000
     30         -0.386353   0.000000
     31         -0.256978   0.000000
     32          0.003102   0.000000
     33          0.104287   0.000000
     34          0.167936   0.000000
     35          0.432365   0.000000
