<?xml version="1.0" encoding="ISO-8859-1"?>
<modeling>
 <generator>
  <i name="program" type="string">vasp </i>
  <i name="version" type="string">6.3.2  </i>
  <i name="subversion" type="string">27Jun22 (build Oct 05 2023 17:59:42) gamma-only                       parallel </i>
  <i name="platform" type="string">LinuxIFC </i>
  <i name="date" type="string">2024 04 09 </i>
  <i name="time" type="string">10:49:28 </i>
 </generator>
 <incar>
  <i type="string" name="PREC">NORMAL</i>
  <i type="string" name="ALGO">Fast</i>
  <i type="int" name="ISPIN">     1</i>
  <i type="int" name="IBRION">     1</i>
  <i name="EDIFF">      0.00001000</i>
  <i name="EDIFFG">     -0.05000000</i>
  <i type="int" name="NSW">  5000</i>
  <i name="ENCUT">    400.00000000</i>
  <i name="POTIM">      0.10000000</i>
  <i type="int" name="ISMEAR">     0</i>
  <i name="SIGMA">      0.05000000</i>
  <i type="logical" name="LWAVE"> F  </i>
  <i type="logical" name="LCHARG"> F  </i>
  <i type="string" name="GGA">PE</i>
  <i type="int" name="IVDW">    11</i>
  <i name="SPRING">     -5.00000000</i>
 </incar>
 <primitive_cell>
  <structure name="primitive_cell" >
   <crystal>
    <varray name="basis" >
     <v>      15.00000000       0.00000000       0.00000000 </v>
     <v>       0.00000000      15.00000000       0.00000000 </v>
     <v>       0.00000000       0.00000000      15.00000000 </v>
    </varray>
    <i name="volume">   3375.00000000 </i>
    <varray name="rec_basis" >
     <v>       0.06666667       0.00000000       0.00000000 </v>
     <v>       0.00000000       0.06666667       0.00000000 </v>
     <v>       0.00000000       0.00000000       0.06666667 </v>
    </varray>
   </crystal>
   <varray name="positions" >
    <v>       0.37344647       0.54385853       0.58390323 </v>
    <v>       0.36942126       0.45483801       0.57748631 </v>
    <v>       0.45155380       0.39863766       0.57782272 </v>
    <v>       0.46226139       0.58824290       0.59111311 </v>
    <v>       0.52540541       0.54407153       0.52317105 </v>
    <v>       0.53939714       0.44790914       0.55596028 </v>
    <v>       0.60749115       0.59509401       0.51671263 </v>
    <v>       0.58980766       0.39122011       0.49552078 </v>
    <v>       0.30612199       0.41949676       0.57066757 </v>
    <v>       0.46209800       0.36709700       0.64289826 </v>
    <v>       0.44243700       0.34293661       0.53258799 </v>
    <v>       0.31343902       0.58490464       0.58348565 </v>
    <v>       0.49376354       0.57837335       0.65645603 </v>
    <v>       0.45751155       0.66003145       0.58186429 </v>
    <v>       0.49679288       0.54339922       0.45609794 </v>
    <v>       0.57873626       0.45343162       0.61710829 </v>
    <v>       0.66708009       0.64484081       0.51743172 </v>
    <v>       0.61836456       0.33741681       0.44739247 </v>
   </varray>
  </structure>
  <varray name="primitive_index" >
   <v type="int" >        1 </v>
   <v type="int" >        2 </v>
   <v type="int" >        3 </v>
   <v type="int" >        4 </v>
   <v type="int" >        5 </v>
   <v type="int" >        6 </v>
   <v type="int" >        7 </v>
   <v type="int" >        8 </v>
   <v type="int" >        9 </v>
   <v type="int" >       10 </v>
   <v type="int" >       11 </v>
   <v type="int" >       12 </v>
   <v type="int" >       13 </v>
   <v type="int" >       14 </v>
   <v type="int" >       15 </v>
   <v type="int" >       16 </v>
   <v type="int" >       17 </v>
   <v type="int" >       18 </v>
  </varray>
 </primitive_cell>
 <kpoints>
  <generation param="Monkhorst-Pack">
   <v type="int" name="divisions">       1        1        1 </v>
   <v name="usershift">      0.00000000       0.00000000       0.00000000 </v>
   <v name="genvec1">      1.00000000       0.00000000       0.00000000 </v>
   <v name="genvec2">      0.00000000       1.00000000       0.00000000 </v>
   <v name="genvec3">      0.00000000       0.00000000       1.00000000 </v>
   <v name="shift">      0.00000000       0.00000000       0.00000000 </v>
  </generation>
  <varray name="kpointlist" >
   <v>       0.00000000       0.00000000       0.00000000 </v>
  </varray>
  <varray name="weights" >
   <v>       1.00000000 </v>
  </varray>
 </kpoints>
 <parameters>
  <separator name="general" >
   <i type="string" name="SYSTEM">unknown system</i>
   <i type="logical" name="LCOMPAT"> F  </i>
  </separator>
  <separator name="electronic" >
   <i type="string" name="PREC">normal</i>
   <i name="ENMAX">    400.00000000</i>
   <i name="ENAUG">    644.87300000</i>
   <i name="EDIFF">      0.00001000</i>
   <i type="int" name="IALGO">    68</i>
   <i type="int" name="IWAVPR">    11</i>
   <i type="int" name="NBANDS">    35</i>
   <i type="int" name="NBANDSLOW">    -1</i>
   <i type="int" name="NBANDSHIGH">    -1</i>
   <i name="NELECT">     50.00000000</i>
   <i type="int" name="TURBO">     0</i>
   <i type="int" name="IRESTART">     0</i>
   <i type="int" name="NREBOOT">     0</i>
   <i type="int" name="NMIN">     0</i>
   <i name="EREF">      0.00000000</i>
   <separator name="electronic smearing" >
    <i type="int" name="ISMEAR">     0</i>
    <i name="SIGMA">      0.05000000</i>
    <i name="KSPACING">      0.50000000</i>
    <i type="logical" name="KGAMMA"> T  </i>
    <i type="logical" name="KBLOWUP"> T  </i>
   </separator>
   <separator name="electronic projectors" >
    <i type="logical" name="LREAL"> F  </i>
    <v name="ROPT">      0.00000000      0.00000000      0.00000000</v>
    <i type="int" name="LMAXPAW">  -100</i>
    <i type="int" name="LMAXMIX">     2</i>
    <i type="logical" name="NLSPLINE"> F  </i>
   </separator>
   <separator name="electronic startup" >
    <i type="int" name="ISTART">     0</i>
    <i type="int" name="ICHARG">     2</i>
    <i type="int" name="INIWAV">     1</i>
   </separator>
   <separator name="electronic spin" >
    <i type="int" name="ISPIN">     1</i>
    <i type="logical" name="LNONCOLLINEAR"> F  </i>
    <v name="MAGMOM">      1.00000000      1.00000000      1.00000000      1.00000000      1.00000000      1.00000000      1.00000000      1.00000000      1.00000000      1.00000000      1.00000000      1.00000000      1.00000000      1.00000000      1.00000000      1.00000000      1.00000000      1.00000000</v>
    <i name="NUPDOWN">     -1.00000000</i>
    <i type="logical" name="LSORBIT"> F  </i>
    <v name="SAXIS">      0.00000000      0.00000000      1.00000000</v>
    <i type="logical" name="LSPIRAL"> F  </i>
    <v name="QSPIRAL">      0.00000000      0.00000000      0.00000000</v>
    <i type="logical" name="LZEROZ"> F  </i>
   </separator>
   <separator name="electronic exchange-correlation" >
    <i type="logical" name="LASPH"> F  </i>
    <i type="logical" name="LMETAGGA"> F  </i>
   </separator>
   <separator name="electronic convergence" >
    <i type="int" name="NELM">    60</i>
    <i type="int" name="NELMDL">    -5</i>
    <i type="int" name="NELMIN">     2</i>
    <i name="ENINI">    400.00000000</i>
    <separator name="electronic convergence detail" >
     <i type="logical" name="LDIAG"> T  </i>
     <i type="logical" name="LSUBROT"> F  </i>
     <i name="WEIMIN">      0.00100000</i>
     <i name="EBREAK">      0.00000007</i>
     <i name="DEPER">      0.30000000</i>
     <i type="int" name="NRMM">     4</i>
     <i name="TIME">      0.40000000</i>
    </separator>
   </separator>
   <separator name="electronic mixer" >
    <i name="AMIX">      0.40000000</i>
    <i name="BMIX">      1.00000000</i>
    <i name="AMIN">      0.10000000</i>
    <i name="AMIX_MAG">      1.60000000</i>
    <i name="BMIX_MAG">      1.00000000</i>
    <separator name="electronic mixer details" >
     <i type="int" name="IMIX">     4</i>
     <i type="logical" name="MIXFIRST"> F  </i>
     <i type="int" name="MAXMIX">   -45</i>
     <i name="WC">    100.00000000</i>
     <i type="int" name="INIMIX">     1</i>
     <i type="int" name="MIXPRE">     1</i>
     <i type="int" name="MREMOVE">     5</i>
    </separator>
   </separator>
   <separator name="electronic dipolcorrection" >
    <i type="logical" name="LDIPOL"> F  </i>
    <i type="logical" name="LMONO"> F  </i>
    <i type="int" name="IDIPOL">     0</i>
    <i name="EPSILON">      1.00000000</i>
    <v name="DIPOL">   -100.00000000   -100.00000000   -100.00000000</v>
    <i name="EFIELD">      0.00000000</i>
   </separator>
  </separator>
  <separator name="grids" >
   <i type="int" name="NGX">    80</i>
   <i type="int" name="NGY">    80</i>
   <i type="int" name="NGZ">    80</i>
   <i type="int" name="NGXF">   160</i>
   <i type="int" name="NGYF">   160</i>
   <i type="int" name="NGZF">   160</i>
   <i type="logical" name="ADDGRID"> F  </i>
  </separator>
  <separator name="ionic" >
   <i type="int" name="NSW">  5000</i>
   <i type="int" name="IBRION">     1</i>
   <i type="int" name="MDALGO">     0</i>
   <i type="int" name="ISIF">     2</i>
   <i name="PSTRESS">      0.00000000</i>
   <i name="EDIFFG">     -0.05000000</i>
   <i type="int" name="NFREE">     0</i>
   <i name="POTIM">      0.10000000</i>
   <i name="SMASS">     -3.00000000</i>
   <i name="SCALEE">      1.00000000</i>
  </separator>
  <separator name="ionic md" >
   <i name="TEBEG">      0.00010000</i>
   <i name="TEEND">      0.00010000</i>
   <i type="int" name="NBLOCK">     1</i>
   <i type="int" name="KBLOCK">  5000</i>
   <i type="int" name="NPACO">   256</i>
   <i name="APACO">     10.00000000</i>
  </separator>
  <separator name="symmetry" >
   <i type="int" name="ISYM">     2</i>
   <i name="SYMPREC">      0.00001000</i>
  </separator>
  <separator name="dos" >
   <i type="int" name="LORBIT">     0</i>
   <v name="RWIGS">     -1.00000000     -1.00000000     -1.00000000</v>
   <i type="int" name="NEDOS">   301</i>
   <i name="EMIN">     10.00000000</i>
   <i name="EMAX">    -10.00000000</i>
   <i name="EFERMI">      0.00000000</i>
  </separator>
  <separator name="writing" >
   <i type="int" name="NWRITE">     2</i>
   <i type="logical" name="LWAVE"> F  </i>
   <i type="logical" name="LDOWNSAMPLE"> F  </i>
   <i type="logical" name="LCHARG"> F  </i>
   <i type="logical" name="LPARD"> F  </i>
   <i type="logical" name="LVTOT"> F  </i>
   <i type="logical" name="LVHAR"> F  </i>
   <i type="logical" name="LELF"> F  </i>
   <i type="logical" name="LOPTICS"> F  </i>
   <v name="STM">      0.00000000      0.00000000      0.00000000      0.00000000      0.00000000      0.00000000      0.00000000</v>
  </separator>
  <separator name="performance" >
   <i type="int" name="NPAR">     1</i>
   <i type="int" name="NSIM">     4</i>
   <i type="int" name="NBLK">    -1</i>
   <i type="logical" name="LPLANE"> T  </i>
   <i type="logical" name="LSCALAPACK"> T  </i>
   <i type="logical" name="LSCAAWARE"> F  </i>
   <i type="logical" name="LSCALU"> F  </i>
   <i type="logical" name="LASYNC"> F  </i>
   <i type="logical" name="LORBITALREAL"> F  </i>
  </separator>
  <separator name="miscellaneous" >
   <i type="int" name="IDIOT">     3</i>
   <i type="int" name="PHON_NSTRUCT">    -1</i>
   <i type="logical" name="LMUSIC"> F  </i>
   <v name="POMASS">     12.01100000      1.00000000     14.00100000</v>
   <v name="DARWINR">      0.00000000      0.00000000      0.00000000</v>
   <v name="DARWINV">      1.00000000      1.00000000      1.00000000</v>
   <i type="logical" name="LCORR"> T  </i>
  </separator>
  <i type="logical" name="GGA_COMPAT"> T  </i>
  <i type="logical" name="LBERRY"> F  </i>
  <i type="int" name="ICORELEVEL">     0</i>
  <i type="logical" name="LDAU"> F  </i>
  <i type="int" name="I_CONSTRAINED_M">     0</i>
  <separator name="electronic exchange-correlation" >
   <i type="string" name="GGA">PE</i>
   <i type="int" name="VOSKOWN">     0</i>
   <i type="logical" name="LHFCALC"> F  </i>
   <i type="string" name="PRECFOCK"></i>
   <i type="logical" name="LSYMGRAD"> F  </i>
   <i type="logical" name="LHFONE"> F  </i>
   <i type="logical" name="LRHFCALC"> F  </i>
   <i type="logical" name="LTHOMAS"> F  </i>
   <i type="logical" name="LMODELHF"> F  </i>
   <i type="logical" name="LFOCKACE"> F  </i>
   <i name="ENCUT4O">     -1.00000000</i>
   <i type="int" name="EXXOEP">     0</i>
   <i type="int" name="FOURORBIT">     0</i>
   <i name="AEXX">      0.00000000</i>
   <i name="HFALPHA">      0.00000000</i>
   <i name="MCALPHA">      0.00000000</i>
   <i name="ALDAX">      1.00000000</i>
   <i name="AGGAX">      1.00000000</i>
   <i name="ALDAC">      1.00000000</i>
   <i name="AGGAC">      1.00000000</i>
   <i type="int" name="NKREDX">     1</i>
   <i type="int" name="NKREDY">     1</i>
   <i type="int" name="NKREDZ">     1</i>
   <i type="logical" name="SHIFTRED"> F  </i>
   <i type="logical" name="ODDONLY"> F  </i>
   <i type="logical" name="EVENONLY"> F  </i>
   <i type="int" name="LMAXFOCK">     0</i>
   <i type="int" name="NMAXFOCKAE">     0</i>
   <i type="logical" name="LFOCKAEDFT"> F  </i>
   <i name="HFSCREEN">      0.00000000</i>
   <i name="HFSCREENC">      0.00000000</i>
   <i type="int" name="NBANDSGWLOW">     0</i>
  </separator>
  <separator name="vdW DFT" >
   <i type="logical" name="LUSE_VDW"> F  </i>
   <i name="Zab_VDW">     -0.84910000</i>
   <i name="PARAM1">      0.12340000</i>
   <i name="PARAM2">      1.00000000</i>
   <i name="PARAM3">      0.00000000</i>
  </separator>
  <separator name="model GW" >
   <i type="int" name="MODEL_GW">     0</i>
   <i name="MODEL_EPS0">    112.50000000</i>
   <i name="MODEL_ALPHA">      1.00000000</i>
  </separator>
  <separator name="linear response parameters" >
   <i type="logical" name="LEPSILON"> F  </i>
   <i type="logical" name="LRPA"> F  </i>
   <i type="logical" name="LNABLA"> F  </i>
   <i type="logical" name="LVEL"> F  </i>
   <i name="CSHIFT">      0.10000000</i>
   <i name="OMEGAMAX">     -1.00000000</i>
   <i name="DEG_THRESHOLD">      0.00200000</i>
   <i name="RTIME">     -0.10000000</i>
   <i name="WPLASMAI">      0.00000000</i>
   <v name="DFIELD">      0.00000000      0.00000000      0.00000000</v>
   <v name="WPLASMA">      0.00000000      0.00000000      0.00000000      0.00000000      0.00000000      0.00000000      0.00000000      0.00000000      0.00000000</v>
  </separator>
  <separator name="orbital magnetization" >
   <i type="logical" name="NUCIND"> F  </i>
   <v name="MAGPOS">      0.00000000      0.00000000      0.00000000</v>
   <i type="logical" name="LNICSALL"> T  </i>
   <i type="logical" name="ORBITALMAG"> F  </i>
   <i type="logical" name="LMAGBLOCH"> F  </i>
   <i type="logical" name="LCHIMAG"> F  </i>
   <i type="logical" name="LGAUGE"> T  </i>
   <i type="int" name="MAGATOM">     0</i>
   <v name="MAGDIPOL">      0.00000000      0.00000000      0.00000000</v>
   <v name="AVECCONST">      0.00000000      0.00000000      0.00000000</v>
  </separator>
  <separator name="response functions" >
   <i type="logical" name="LFINITE_TEMPERATURE"> F  </i>
   <i type="logical" name="LADDER"> F  </i>
   <i type="logical" name="LRPAFORCE"> F  </i>
   <i type="logical" name="LFXC"> F  </i>
   <i type="logical" name="LHARTREE"> T  </i>
   <i type="int" name="IBSE">     0</i>
   <v type="int" name="KPOINT">    -1     0     0     0</v>
   <i type="logical" name="LTCTC"> F  </i>
   <i type="logical" name="LTCTE"> F  </i>
   <i type="logical" name="LTETE"> F  </i>
   <i type="logical" name="LTRIPLET"> F  </i>
   <i type="logical" name="LFXCEPS"> F  </i>
   <i type="logical" name="LFXHEG"> F  </i>
   <i type="int" name="NATURALO">     2</i>
   <i type="logical" name="LHOLEGF"> F  </i>
   <i type="logical" name="L2ORDER"> F  </i>
   <i type="logical" name="LDMP1"> F  </i>
   <i type="logical" name="LMP2LT"> F  </i>
   <i type="logical" name="LSMP2LT"> F  </i>
   <i type="logical" name="LGWLF"> F  </i>
   <i name="ENCUTGW">     -2.00000000</i>
   <i name="ENCUTGWSOFT">     -2.00000000</i>
   <i name="ENCUTLF">     -1.00000000</i>
   <i type="logical" name="LESF_SPLINES"> F  </i>
   <i type="int" name="LMAXMP2">    -1</i>
   <i name="SCISSOR">      0.00000000</i>
   <i type="int" name="NOMEGA">     0</i>
   <i type="int" name="NOMEGAR">     0</i>
   <i type="int" name="NBANDSGW">    -1</i>
   <i type="int" name="NBANDSO">    -1</i>
   <i type="int" name="NBANDSV">    -1</i>
   <i type="int" name="NELMGW">     1</i>
   <i type="int" name="NELMHF">     1</i>
   <i type="int" name="DIM">     3</i>
   <i type="int" name="IESPILON">     4</i>
   <i type="int" name="ANTIRES">     0</i>
   <i name="OMEGAMAX">    -30.00000000</i>
   <i name="OMEGAMIN">    -30.00000000</i>
   <i name="OMEGATL">   -200.00000000</i>
   <i type="int" name="OMEGAGRID">     0</i>
   <i name="CSHIFT">     -0.10000000</i>
   <i type="logical" name="LSELFENERGY"> F  </i>
   <i type="logical" name="LSPECTRAL"> F  </i>
   <i type="logical" name="LSPECTRALGW"> F  </i>
   <i type="logical" name="LSINGLES"> F  </i>
   <i type="logical" name="LFERMIGW"> F  </i>
   <i type="logical" name="ODDONLYGW"> F  </i>
   <i type="logical" name="EVENONLYGW"> F  </i>
   <i type="int" name="NKREDLFX">     1</i>
   <i type="int" name="NKREDLFY">     1</i>
   <i type="int" name="NKREDLFZ">     1</i>
   <i type="int" name="MAXMEM">  2800</i>
   <i type="int" name="TELESCOPE">     0</i>
   <i type="int" name="NTAUPAR">    -1</i>
   <i type="int" name="NOMEGAPAR">    -1</i>
   <i name="DAMP_NEWTON">      0.80000001</i>
   <i name="LAMBDA">      1.00000000</i>
  </separator>
  <separator name="External order field" >
   <i name="OFIELD_KAPPA">      0.00000000</i>
   <v name="OFIELD_K">      0.00000000      0.00000000      0.00000000</v>
   <i name="OFIELD_Q6_NEAR">      0.00000000</i>
   <i name="OFIELD_Q6_FAR">      0.00000000</i>
   <i name="OFIELD_A">      0.00000000</i>
  </separator>
  <separator name="optional k-points parameters" >
   <i type="int" name="KPOINTS_OPT_MODE">     1</i>
   <i type="logical" name="LKPOINTS_OPT"> F  </i>
  </separator>
 </parameters>
 <atominfo>
  <atoms>      18 </atoms>
  <types>       3 </types>
  <array name="atoms" >
   <dimension dim="1">ion</dimension>
   <field type="string">element</field>
   <field type="int">atomtype</field>
   <set>
    <rc><c>C </c><c>   1</c></rc>
    <rc><c>C </c><c>   1</c></rc>
    <rc><c>C </c><c>   1</c></rc>
    <rc><c>C </c><c>   1</c></rc>
    <rc><c>C </c><c>   1</c></rc>
    <rc><c>C </c><c>   1</c></rc>
    <rc><c>C </c><c>   1</c></rc>
    <rc><c>C </c><c>   1</c></rc>
    <rc><c>H </c><c>   2</c></rc>
    <rc><c>H </c><c>   2</c></rc>
    <rc><c>H </c><c>   2</c></rc>
    <rc><c>H </c><c>   2</c></rc>
    <rc><c>H </c><c>   2</c></rc>
    <rc><c>H </c><c>   2</c></rc>
    <rc><c>H </c><c>   2</c></rc>
    <rc><c>H </c><c>   2</c></rc>
    <rc><c>N </c><c>   3</c></rc>
    <rc><c>N </c><c>   3</c></rc>
   </set>
  </array>
  <array name="atomtypes" >
   <dimension dim="1">type</dimension>
   <field type="int">atomspertype</field>
   <field type="string">element</field>
   <field>mass</field>
   <field>valence</field>
   <field type="string">pseudopotential</field>
   <set>
    <rc><c>   8</c><c>C </c><c>     12.01100000</c><c>      4.00000000</c><c>  PAW_PBE C 08Apr2002                   </c></rc>
    <rc><c>   8</c><c>H </c><c>      1.00000000</c><c>      1.00000000</c><c>  PAW_PBE H 15Jun2001                   </c></rc>
    <rc><c>   2</c><c>N </c><c>     14.00100000</c><c>      5.00000000</c><c>  PAW_PBE N 08Apr2002                   </c></rc>
   </set>
  </array>
 </atominfo>
 <structure name="initialpos" >
  <crystal>
   <varray name="basis" >
    <v>      15.00000000       0.00000000       0.00000000 </v>
    <v>       0.00000000      15.00000000       0.00000000 </v>
    <v>       0.00000000       0.00000000      15.00000000 </v>
   </varray>
   <i name="volume">   3375.00000000 </i>
   <varray name="rec_basis" >
    <v>       0.06666667       0.00000000       0.00000000 </v>
    <v>       0.00000000       0.06666667       0.00000000 </v>
    <v>       0.00000000       0.00000000       0.06666667 </v>
   </varray>
  </crystal>
  <varray name="positions" >
   <v>       0.37344647       0.54385853       0.58390323 </v>
   <v>       0.36942126       0.45483801       0.57748631 </v>
   <v>       0.45155380       0.39863766       0.57782272 </v>
   <v>       0.46226139       0.58824290       0.59111311 </v>
   <v>       0.52540541       0.54407153       0.52317105 </v>
   <v>       0.53939714       0.44790914       0.55596028 </v>
   <v>       0.60749115       0.59509401       0.51671263 </v>
   <v>       0.58980766       0.39122011       0.49552078 </v>
   <v>       0.30612199       0.41949676       0.57066757 </v>
   <v>       0.46209800       0.36709700       0.64289826 </v>
   <v>       0.44243700       0.34293661       0.53258799 </v>
   <v>       0.31343902       0.58490464       0.58348565 </v>
   <v>       0.49376354       0.57837335       0.65645603 </v>
   <v>       0.45751155       0.66003145       0.58186429 </v>
   <v>       0.49679288       0.54339922       0.45609794 </v>
   <v>       0.57873626       0.45343162       0.61710829 </v>
   <v>       0.66708009       0.64484081       0.51743172 </v>
   <v>       0.61836456       0.33741681       0.44739247 </v>
  </varray>
 </structure>
 <calculation>
  <scstep>
   <time name="dav">    6.64    6.74</time>
   <time name="total">    9.10    9.23</time>
   <energy>
    <i name="alphaZ">      3.36120243 </i>
    <i name="ewald">   3140.14773869 </i>
    <i name="hartreedc">  -4383.19867027 </i>
    <i name="XCdc">    160.97792005 </i>
    <i name="pawpsdc">   1295.11405375 </i>
    <i name="pawaedc">  -1302.12229068 </i>
    <i name="eentropy">     -0.03931644 </i>
    <i name="bandstr">   -273.64849560 </i>
    <i name="atom">   1805.79685712 </i>
    <i name="e_fr_energy">    446.38899905 </i>
    <i name="e_wo_entrp">    446.42831549 </i>
    <i name="e_0_energy">    446.40865727 </i>
   </energy>
  </scstep>
  <scstep>
   <time name="dav">    4.71    5.20</time>
   <time name="total">    4.71    5.21</time>
   <energy>
    <i name="e_fr_energy">     88.98806128 </i>
    <i name="e_wo_entrp">     88.98806128 </i>
    <i name="e_0_energy">     88.98806128 </i>
   </energy>
  </scstep>
  <scstep>
   <time name="dav">    2.59    2.70</time>
   <time name="total">    2.59    2.70</time>
   <energy>
    <i name="e_fr_energy">   -103.45405399 </i>
    <i name="e_wo_entrp">   -103.45405399 </i>
    <i name="e_0_energy">   -103.45405399 </i>
   </energy>
  </scstep>
  <scstep>
   <time name="dav">    2.46    2.46</time>
   <time name="total">    2.46    2.46</time>
   <energy>
    <i name="e_fr_energy">   -126.68726982 </i>
    <i name="e_wo_entrp">   -126.68726982 </i>
    <i name="e_0_energy">   -126.68726982 </i>
   </energy>
  </scstep>
  <scstep>
   <time name="dav">    2.83    2.83</time>
   <time name="total">    3.51    3.52</time>
   <energy>
    <i name="e_fr_energy">   -127.16537885 </i>
    <i name="e_wo_entrp">   -127.16537885 </i>
    <i name="e_0_energy">   -127.16537885 </i>
   </energy>
  </scstep>
  <scstep>
   <time name="diag">    0.40    0.40</time>
   <time name="diis">    2.27    2.27</time>
   <time name="orth">    0.01    0.01</time>
   <time name="total">    5.12    5.12</time>
   <energy>
    <i name="e_fr_energy">   -118.19908960 </i>
    <i name="e_wo_entrp">   -118.19908960 </i>
    <i name="e_0_energy">   -118.19908960 </i>
   </energy>
  </scstep>
  <scstep>
   <time name="diag">    0.39    0.39</time>
   <time name="diis">    2.25    2.25</time>
   <time name="orth">    0.01    0.01</time>
   <time name="total">    4.42    4.42</time>
   <energy>
    <i name="e_fr_energy">   -116.06139504 </i>
    <i name="e_wo_entrp">   -116.06139504 </i>
    <i name="e_0_energy">   -116.06139504 </i>
   </energy>
  </scstep>
  <scstep>
   <time name="diag">    0.38    0.38</time>
   <time name="diis">    2.28    2.28</time>
   <time name="orth">    0.01    0.01</time>
   <time name="total">    4.39    4.39</time>
   <energy>
    <i name="e_fr_energy">   -115.86396415 </i>
    <i name="e_wo_entrp">   -115.86396415 </i>
    <i name="e_0_energy">   -115.86396415 </i>
   </energy>
  </scstep>
  <scstep>
   <time name="diag">    0.36    0.36</time>
   <time name="diis">    2.22    2.22</time>
   <time name="orth">    0.01    0.01</time>
   <time name="total">    4.31    4.31</time>
   <energy>
    <i name="e_fr_energy">   -115.78373863 </i>
    <i name="e_wo_entrp">   -115.78373863 </i>
    <i name="e_0_energy">   -115.78373863 </i>
   </energy>
  </scstep>
  <scstep>
   <time name="diag">    0.36    0.36</time>
   <time name="diis">    2.53    2.53</time>
   <time name="orth">    0.01    0.01</time>
   <time name="total">    4.60    4.60</time>
   <energy>
    <i name="e_fr_energy">   -115.79583502 </i>
    <i name="e_wo_entrp">   -115.79583502 </i>
    <i name="e_0_energy">   -115.79583502 </i>
   </energy>
  </scstep>
  <scstep>
   <time name="diag">    0.35    0.35</time>
   <time name="diis">    2.23    2.23</time>
   <time name="orth">    0.01    0.01</time>
   <time name="total">    4.29    4.29</time>
   <energy>
    <i name="e_fr_energy">   -115.80740820 </i>
    <i name="e_wo_entrp">   -115.80740820 </i>
    <i name="e_0_energy">   -115.80740820 </i>
   </energy>
  </scstep>
  <scstep>
   <time name="diag">    0.39    0.39</time>
   <time name="diis">    2.31    2.31</time>
   <time name="orth">    0.01    0.01</time>
   <time name="total">    4.46    4.46</time>
   <energy>
    <i name="e_fr_energy">   -115.80753949 </i>
    <i name="e_wo_entrp">   -115.80753949 </i>
    <i name="e_0_energy">   -115.80753949 </i>
   </energy>
  </scstep>
  <scstep>
   <time name="diag">    0.36    0.36</time>
   <time name="diis">    2.28    2.28</time>
   <time name="orth">    0.01    0.01</time>
   <time name="total">    4.41    4.41</time>
   <energy>
    <i name="e_fr_energy">   -115.82360378 </i>
    <i name="e_wo_entrp">   -115.82360378 </i>
    <i name="e_0_energy">   -115.82360378 </i>
   </energy>
  </scstep>
  <scstep>
   <time name="diag">    0.37    0.37</time>
   <time name="diis">    2.35    2.35</time>
   <time name="orth">    0.01    0.01</time>
   <time name="total">    4.53    4.53</time>
   <energy>
    <i name="e_fr_energy">   -115.82317460 </i>
    <i name="e_wo_entrp">   -115.82317460 </i>
    <i name="e_0_energy">   -115.82317460 </i>
   </energy>
  </scstep>
  <scstep>
   <time name="diag">    0.41    0.41</time>
   <time name="diis">    2.33    2.33</time>
   <time name="orth">    0.01    0.01</time>
   <time name="total">    4.59    4.59</time>
   <energy>
    <i name="e_fr_energy">   -115.83234446 </i>
    <i name="e_wo_entrp">   -115.83234446 </i>
    <i name="e_0_energy">   -115.83234446 </i>
   </energy>
  </scstep>
  <scstep>
   <time name="diag">    0.35    0.35</time>
   <time name="diis">    2.52    2.52</time>
   <time name="orth">    0.01    0.01</time>
   <time name="total">    4.68    4.68</time>
   <energy>
    <i name="e_fr_energy">   -115.83370640 </i>
    <i name="e_wo_entrp">   -115.83370640 </i>
    <i name="e_0_energy">   -115.83370640 </i>
   </energy>
  </scstep>
  <scstep>
   <time name="diag">    0.35    0.35</time>
   <time name="diis">    2.28    2.28</time>
   <time name="orth">    0.01    0.01</time>
   <time name="total">    4.35    4.35</time>
   <energy>
    <i name="e_fr_energy">   -115.83528865 </i>
    <i name="e_wo_entrp">   -115.83528865 </i>
    <i name="e_0_energy">   -115.83528865 </i>
   </energy>
  </scstep>
  <scstep>
   <time name="diag">    0.32    0.32</time>
   <time name="diis">    3.12    3.12</time>
   <time name="orth">    0.01    0.01</time>
   <time name="total">    5.05    5.05</time>
   <energy>
    <i name="e_fr_energy">   -115.83652038 </i>
    <i name="e_wo_entrp">   -115.83652038 </i>
    <i name="e_0_energy">   -115.83652038 </i>
   </energy>
  </scstep>
  <scstep>
   <time name="diag">    0.36    0.36</time>
   <time name="diis">    1.76    1.76</time>
   <time name="orth">    0.01    0.01</time>
   <time name="total">    3.86    3.86</time>
   <energy>
    <i name="e_fr_energy">   -115.83700279 </i>
    <i name="e_wo_entrp">   -115.83700279 </i>
    <i name="e_0_energy">   -115.83700279 </i>
   </energy>
  </scstep>
  <scstep>
   <time name="diag">    0.37    0.37</time>
   <time name="diis">    4.09    4.09</time>
   <time name="orth">    0.03    0.03</time>
   <time name="total">    6.66    6.66</time>
   <energy>
    <i name="e_fr_energy">   -115.83716941 </i>
    <i name="e_wo_entrp">   -115.83716941 </i>
    <i name="e_0_energy">   -115.83716941 </i>
   </energy>
  </scstep>
  <scstep>
   <time name="diag">    0.38    0.38</time>
   <time name="diis">    1.65    1.65</time>
   <time name="orth">    0.01    0.01</time>
   <time name="total">    5.23    5.24</time>
   <energy>
    <i name="e_fr_energy">   -115.83725973 </i>
    <i name="e_wo_entrp">   -115.83725973 </i>
    <i name="e_0_energy">   -115.83725973 </i>
   </energy>
  </scstep>
  <scstep>
   <time name="diag">    0.34    0.34</time>
   <time name="diis">    1.17    1.17</time>
   <time name="orth">    0.01    0.01</time>
   <time name="total">    3.35    3.35</time>
   <energy>
    <i name="e_fr_energy">   -115.83729541 </i>
    <i name="e_wo_entrp">   -115.83729541 </i>
    <i name="e_0_energy">   -115.83729541 </i>
   </energy>
  </scstep>
  <scstep>
   <time name="diag">    0.22    0.22</time>
   <time name="diis">    0.91    0.91</time>
   <time name="orth">    0.01    0.01</time>
   <time name="total">    2.52    2.52</time>
   <energy>
    <i name="e_fr_energy">   -115.83730853 </i>
    <i name="e_wo_entrp">   -115.83730853 </i>
    <i name="e_0_energy">   -115.83730853 </i>
   </energy>
  </scstep>
  <scstep>
   <time name="diag">    0.23    0.23</time>
   <time name="diis">    0.77    0.77</time>
   <time name="orth">    0.01    0.01</time>
   <time name="total">    2.31    2.31</time>
   <energy>
    <i name="e_fr_energy">   -115.83732066 </i>
    <i name="e_wo_entrp">   -115.83732066 </i>
    <i name="e_0_energy">   -115.83732066 </i>
   </energy>
  </scstep>
  <scstep>
   <time name="diag">    0.18    0.18</time>
   <time name="diis">    0.50    0.50</time>
   <time name="orth">    0.00    0.00</time>
   <time name="total">    1.56    1.56</time>
   <energy>
    <i name="alphaZ">      3.36120243 </i>
    <i name="ewald">   3140.14773869 </i>
    <i name="hartreedc">  -4588.16307439 </i>
    <i name="XCdc">    171.13298056 </i>
    <i name="pawpsdc">   4416.88045650 </i>
    <i name="pawaedc">  -4425.22339091 </i>
    <i name="eentropy">     -0.00000000 </i>
    <i name="bandstr">   -639.77009398 </i>
    <i name="atom">   1805.79685712 </i>
    <i name="e_fr_energy">   -115.83732398 </i>
    <i name="e_wo_entrp">   -115.83732398 </i>
    <i name="e_0_energy">   -115.83732398 </i>
   </energy>
  </scstep>
  <structure>
   <crystal>
    <varray name="basis" >
     <v>      15.00000000       0.00000000       0.00000000 </v>
     <v>       0.00000000      15.00000000       0.00000000 </v>
     <v>       0.00000000       0.00000000      15.00000000 </v>
    </varray>
    <i name="volume">   3375.00000000 </i>
    <varray name="rec_basis" >
     <v>       0.06666667       0.00000000       0.00000000 </v>
     <v>       0.00000000       0.06666667       0.00000000 </v>
     <v>       0.00000000       0.00000000       0.06666667 </v>
    </varray>
   </crystal>
   <varray name="positions" >
    <v>       0.37344647       0.54385853       0.58390323 </v>
    <v>       0.36942126       0.45483801       0.57748631 </v>
    <v>       0.45155380       0.39863766       0.57782272 </v>
    <v>       0.46226139       0.58824290       0.59111311 </v>
    <v>       0.52540541       0.54407153       0.52317105 </v>
    <v>       0.53939714       0.44790914       0.55596028 </v>
    <v>       0.60749115       0.59509401       0.51671263 </v>
    <v>       0.58980766       0.39122011       0.49552078 </v>
    <v>       0.30612199       0.41949676       0.57066757 </v>
    <v>       0.46209800       0.36709700       0.64289826 </v>
    <v>       0.44243700       0.34293661       0.53258799 </v>
    <v>       0.31343902       0.58490464       0.58348565 </v>
    <v>       0.49376354       0.57837335       0.65645603 </v>
    <v>       0.45751155       0.66003145       0.58186429 </v>
    <v>       0.49679288       0.54339922       0.45609794 </v>
    <v>       0.57873626       0.45343162       0.61710829 </v>
    <v>       0.66708009       0.64484081       0.51743172 </v>
    <v>       0.61836456       0.33741681       0.44739247 </v>
   </varray>
  </structure>
  <varray name="forces" >
   <v>      -0.23711697      -0.31831378       0.29367809 </v>
   <v>      -0.06818328       0.23983908       0.04678183 </v>
   <v>      -0.27380745      -0.07101153       0.23132079 </v>
   <v>      -0.06618347       0.09285539      -0.21241178 </v>
   <v>       0.22900020       0.07736059      -0.12988473 </v>
   <v>       0.51989481      -0.09331443      -0.08512152 </v>
   <v>      -0.07973451       0.03987580       0.23872776 </v>
   <v>      -0.24374573       0.04745416      -0.08881218 </v>
   <v>      -0.04617193       0.07096268       0.01426515 </v>
   <v>      -0.18132218      -0.09604592       0.27800490 </v>
   <v>      -0.05575682      -0.33253054      -0.39427684 </v>
   <v>      -0.05301531      -0.01243143      -0.00867416 </v>
   <v>      -0.08723956       0.05300893       0.29344805 </v>
   <v>       0.03022198       0.29698691      -0.21580981 </v>
   <v>      -0.36283836      -0.00987055      -0.17882150 </v>
   <v>       0.17496651       0.04012712       0.27103438 </v>
   <v>       0.41332243       0.09844564      -0.10002966 </v>
   <v>       0.38770964      -0.12339811      -0.25341877 </v>
  </varray>
  <varray name="stress" >
   <v>       0.27086210       0.14082834      -0.28837524 </v>
   <v>       0.14082834      -0.17862985       0.13157424 </v>
   <v>      -0.28837524       0.13157423      -0.28640207 </v>
  </varray>
  <energy>
   <i name="e_fr_energy">   -116.07876800 </i>
   <i name="e_wo_entrp">   -116.07876800 </i>
   <i name="e_0_energy">   -116.07876800 </i>
  </energy>
  <time name="totalsc">  139.24  140.77</time>
 </calculation>
 <calculation>
  <scstep>
   <time name="dav">    4.34    4.57</time>
   <time name="total">    7.12    7.58</time>
   <energy>
    <i name="alphaZ">      3.36120243 </i>
    <i name="ewald">   3135.35497570 </i>
    <i name="hartreedc">  -4584.36025798 </i>
    <i name="XCdc">    171.07463401 </i>
    <i name="pawpsdc">   4416.86491427 </i>
    <i name="pawaedc">  -4425.20784580 </i>
    <i name="eentropy">     -0.00000000 </i>
    <i name="bandstr">   -638.73660591 </i>
    <i name="atom">   1805.79685712 </i>
    <i name="e_fr_energy">   -115.85212617 </i>
    <i name="e_wo_entrp">   -115.85212617 </i>
    <i name="e_0_energy">   -115.85212617 </i>
   </energy>
  </scstep>
  <scstep>
   <time name="diag">    0.51    0.51</time>
   <time name="diis">    3.21    3.57</time>
   <time name="orth">    0.03    0.04</time>
   <time name="total">    6.12    6.51</time>
   <energy>
    <i name="e_fr_energy">   -115.85242432 </i>
    <i name="e_wo_entrp">   -115.85242432 </i>
    <i name="e_0_energy">   -115.85242432 </i>
   </energy>
  </scstep>
  <scstep>
   <time name="diag">    0.59    0.59</time>
   <time name="diis">    3.27    3.33</time>
   <time name="orth">    0.02    0.02</time>
   <time name="total">    6.22    6.29</time>
   <energy>
    <i name="e_fr_energy">   -115.85240957 </i>
    <i name="e_wo_entrp">   -115.85240957 </i>
    <i name="e_0_energy">   -115.85240957 </i>
   </energy>
  </scstep>
  <scstep>
   <time name="diag">    0.62    0.64</time>
   <time name="diis">    2.74    2.87</time>
   <time name="orth">    0.01    0.01</time>
   <time name="total">    5.55    6.03</time>
   <energy>
    <i name="e_fr_energy">   -115.85245927 </i>
    <i name="e_wo_entrp">   -115.85245927 </i>
    <i name="e_0_energy">   -115.85245927 </i>
   </energy>
  </scstep>
  <scstep>
   <time name="diag">    0.34    0.34</time>
   <time name="diis">    2.28    2.28</time>
   <time name="orth">    0.01    0.01</time>
   <time name="total">    4.28    4.28</time>
   <energy>
    <i name="e_fr_energy">   -115.85247381 </i>
    <i name="e_wo_entrp">   -115.85247381 </i>
    <i name="e_0_energy">   -115.85247381 </i>
   </energy>
  </scstep>
  <scstep>
   <time name="diag">    0.29    0.29</time>
   <time name="diis">    1.42    1.42</time>
   <time name="orth">    0.01    0.01</time>
   <time name="total">    3.06    3.07</time>
   <energy>
    <i name="alphaZ">      3.36120243 </i>
    <i name="ewald">   3135.35497570 </i>
    <i name="hartreedc">  -4583.65550395 </i>
    <i name="XCdc">    171.03941325 </i>
    <i name="pawpsdc">   4400.88407043 </i>
    <i name="pawaedc">  -4409.21438275 </i>
    <i name="eentropy">     -0.00000000 </i>
    <i name="bandstr">   -639.41911357 </i>
    <i name="atom">   1805.79685712 </i>
    <i name="e_fr_energy">   -115.85248134 </i>
    <i name="e_wo_entrp">   -115.85248134 </i>
    <i name="e_0_energy">   -115.85248134 </i>
   </energy>
  </scstep>
  <structure>
   <crystal>
    <varray name="basis" >
     <v>      15.00000000       0.00000000       0.00000000 </v>
     <v>       0.00000000      15.00000000       0.00000000 </v>
     <v>       0.00000000       0.00000000      15.00000000 </v>
    </varray>
    <i name="volume">   3375.00000000 </i>
    <varray name="rec_basis" >
     <v>       0.06666667       0.00000000       0.00000000 </v>
     <v>       0.00000000       0.06666667       0.00000000 </v>
     <v>       0.00000000       0.00000000       0.06666667 </v>
    </varray>
   </crystal>
   <varray name="positions" >
    <v>       0.37328626       0.54363202       0.58408415 </v>
    <v>       0.36937995       0.45497167       0.57749677 </v>
    <v>       0.45140130       0.39861934       0.57806283 </v>
    <v>       0.46221853       0.58826586       0.59101009 </v>
    <v>       0.52553567       0.54412282       0.52307763 </v>
    <v>       0.53972390       0.44783282       0.55583223 </v>
    <v>       0.60742404       0.59511570       0.51684619 </v>
    <v>       0.58950239       0.39123531       0.49530497 </v>
    <v>       0.30612280       0.41950665       0.57056716 </v>
    <v>       0.46204544       0.36730809       0.64321626 </v>
    <v>       0.44245415       0.34264262       0.53263525 </v>
    <v>       0.31341172       0.58488965       0.58341785 </v>
    <v>       0.49370862       0.57831596       0.65666514 </v>
    <v>       0.45754519       0.66018953       0.58180620 </v>
    <v>       0.49651737       0.54343721       0.45598443 </v>
    <v>       0.57893441       0.45340539       0.61713573 </v>
    <v>       0.66734754       0.64487743       0.51732596 </v>
    <v>       0.61836737       0.33731819       0.44703215 </v>
   </varray>
  </structure>
  <varray name="forces" >
   <v>      -0.13736070       0.02926149       0.26075310 </v>
   <v>      -0.10083184      -0.06470547       0.03921160 </v>
   <v>      -0.15667267      -0.11967532       0.08144503 </v>
   <v>      -0.04907852       0.06379441      -0.07714941 </v>
   <v>       0.09119627       0.02029610      -0.13456787 </v>
   <v>       0.29188256      -0.02912837       0.03513960 </v>
   <v>       0.33382378       0.36912050       0.19012873 </v>
   <v>       0.03608438      -0.35235689      -0.43463289 </v>
   <v>      -0.03866599       0.08097211       0.01789399 </v>
   <v>      -0.18151825      -0.09678614       0.27637269 </v>
   <v>      -0.05258466      -0.21842958      -0.28327462 </v>
   <v>      -0.05783826      -0.02718671      -0.00121269 </v>
   <v>      -0.12833370       0.07721458       0.17254071 </v>
   <v>       0.01974611       0.23054300      -0.20877695 </v>
   <v>      -0.29749952      -0.01046549      -0.11148763 </v>
   <v>       0.17695394       0.02807259       0.22771082 </v>
   <v>       0.05909203      -0.18948339      -0.09018077 </v>
   <v>       0.19160505       0.20894259       0.04008658 </v>
  </varray>
  <varray name="stress" >
   <v>      -0.01131400       0.04774178      -0.28572288 </v>
   <v>       0.04774178      -0.34946973       0.03563548 </v>
   <v>      -0.28572288       0.03563549      -0.51754011 </v>
  </varray>
  <energy>
   <i name="e_fr_energy">   -116.09388099 </i>
   <i name="e_wo_entrp">   -116.09388099 </i>
   <i name="e_0_energy">   -116.09388099 </i>
  </energy>
  <time name="totalsc">   54.74   56.18</time>
 </calculation>
 <calculation>
  <scstep>
   <time name="dav">    2.18    2.18</time>
   <time name="total">    4.00    4.00</time>
   <energy>
    <i name="alphaZ">      3.36120243 </i>
    <i name="ewald">   3133.29221945 </i>
    <i name="hartreedc">  -4581.25076700 </i>
    <i name="XCdc">    171.03320683 </i>
    <i name="pawpsdc">   4401.44069440 </i>
    <i name="pawaedc">  -4409.77092660 </i>
    <i name="eentropy">     -0.00000000 </i>
    <i name="bandstr">   -639.76392998 </i>
    <i name="atom">   1805.79685712 </i>
    <i name="e_fr_energy">   -115.86144335 </i>
    <i name="e_wo_entrp">   -115.86144335 </i>
    <i name="e_0_energy">   -115.86144335 </i>
   </energy>
  </scstep>
  <scstep>
   <time name="diag">    0.38    0.38</time>
   <time name="diis">    2.58    2.58</time>
   <time name="orth">    0.01    0.01</time>
   <time name="total">    4.76    4.76</time>
   <energy>
    <i name="e_fr_energy">   -115.86125053 </i>
    <i name="e_wo_entrp">   -115.86125053 </i>
    <i name="e_0_energy">   -115.86125053 </i>
   </energy>
  </scstep>
  <scstep>
   <time name="diag">    0.44    0.44</time>
   <time name="diis">    2.38    2.39</time>
   <time name="orth">    0.02    0.02</time>
   <time name="total">    4.72    4.72</time>
   <energy>
    <i name="e_fr_energy">   -115.86115759 </i>
    <i name="e_wo_entrp">   -115.86115759 </i>
    <i name="e_0_energy">   -115.86115759 </i>
   </energy>
  </scstep>
  <scstep>
   <time name="diag">    0.38    0.38</time>
   <time name="diis">    2.39    2.39</time>
   <time name="orth">    0.01    0.01</time>
   <time name="total">    4.51    4.51</time>
   <energy>
    <i name="e_fr_energy">   -115.86119035 </i>
    <i name="e_wo_entrp">   -115.86119035 </i>
    <i name="e_0_energy">   -115.86119035 </i>
   </energy>
  </scstep>
  <scstep>
   <time name="diag">    0.35    0.35</time>
   <time name="diis">    1.99    1.99</time>
   <time name="orth">    0.01    0.01</time>
   <time name="total">    3.82    3.82</time>
   <energy>
    <i name="alphaZ">      3.36120243 </i>
    <i name="ewald">   3133.29221945 </i>
    <i name="hartreedc">  -4581.63439884 </i>
    <i name="XCdc">    171.06147115 </i>
    <i name="pawpsdc">   4410.53401336 </i>
    <i name="pawaedc">  -4418.87476859 </i>
    <i name="eentropy">     -0.00000000 </i>
    <i name="bandstr">   -639.39778722 </i>
    <i name="atom">   1805.79685712 </i>
    <i name="e_fr_energy">   -115.86119115 </i>
    <i name="e_wo_entrp">   -115.86119115 </i>
    <i name="e_0_energy">   -115.86119115 </i>
   </energy>
  </scstep>
  <structure>
   <crystal>
    <varray name="basis" >
     <v>      15.00000000       0.00000000       0.00000000 </v>
     <v>       0.00000000      15.00000000       0.00000000 </v>
     <v>       0.00000000       0.00000000      15.00000000 </v>
    </varray>
    <i name="volume">   3375.00000000 </i>
    <varray name="rec_basis" >
     <v>       0.06666667       0.00000000       0.00000000 </v>
     <v>       0.00000000       0.06666667       0.00000000 </v>
     <v>       0.00000000       0.00000000       0.06666667 </v>
    </varray>
   </crystal>
   <varray name="positions" >
    <v>       0.37318940       0.54363297       0.58424801 </v>
    <v>       0.36931600       0.45490898       0.57750374 </v>
    <v>       0.45132059       0.39856626       0.57820125 </v>
    <v>       0.46218507       0.58827357       0.59098970 </v>
    <v>       0.52557960       0.54413762       0.52297946 </v>
    <v>       0.53990864       0.44779847       0.55578822 </v>
    <v>       0.60762977       0.59535532       0.51695317 </v>
    <v>       0.58938928       0.39098865       0.49487239 </v>
    <v>       0.30612522       0.41952730       0.57047861 </v>
    <v>       0.46198457       0.36749573       0.64352675 </v>
    <v>       0.44246855       0.34242469       0.53272620 </v>
    <v>       0.31337966       0.58486506       0.58335946 </v>
    <v>       0.49362533       0.57828224       0.65679796 </v>
    <v>       0.45757113       0.66031152       0.58174329 </v>
    <v>       0.49628242       0.54347110       0.45591278 </v>
    <v>       0.57913068       0.45337540       0.61715009 </v>
    <v>       0.66738806       0.64472818       0.51722845 </v>
    <v>       0.61826623       0.33743837       0.44687640 </v>
   </varray>
  </structure>
  <varray name="forces" >
   <v>      -0.08146682      -0.03134943       0.21632094 </v>
   <v>      -0.06248379       0.01807581       0.05150425 </v>
   <v>      -0.08193733      -0.13756676       0.03838740 </v>
   <v>      -0.02732736       0.07976457      -0.03772693 </v>
   <v>       0.12524944       0.05245149      -0.10790963 </v>
   <v>       0.23950103      -0.07629766      -0.01044660 </v>
   <v>      -0.26842389      -0.11615927       0.15753757 </v>
   <v>      -0.25950047       0.22157769       0.11157783 </v>
   <v>      -0.07649741       0.05702097       0.01509792 </v>
   <v>      -0.18125369      -0.09255443       0.24384040 </v>
   <v>      -0.04693611      -0.16694944      -0.22505703 </v>
   <v>      -0.08447551      -0.01004825       0.00601391 </v>
   <v>      -0.13895669       0.08960836       0.11760574 </v>
   <v>       0.01825769       0.17229363      -0.19612693 </v>
   <v>      -0.24997736      -0.00631819      -0.07487477 </v>
   <v>       0.17281140       0.01386017       0.18446688 </v>
   <v>       0.55346170       0.22478305      -0.07682826 </v>
   <v>       0.44995518      -0.29219232      -0.41338268 </v>
  </varray>
  <varray name="stress" >
   <v>       0.10217834       0.08363730      -0.35242545 </v>
   <v>       0.08363730      -0.19762236       0.17415101 </v>
   <v>      -0.35242545       0.17415101      -0.51118851 </v>
  </varray>
  <energy>
   <i name="e_fr_energy">   -116.10269162 </i>
   <i name="e_wo_entrp">   -116.10269162 </i>
   <i name="e_0_energy">   -116.10269162 </i>
  </energy>
  <time name="totalsc">   45.38   45.43</time>
 </calculation>
 <calculation>
  <scstep>
   <time name="dav">    5.08    5.08</time>
   <time name="total">    8.35    8.35</time>
   <energy>
    <i name="alphaZ">      3.36120243 </i>
    <i name="ewald">   3125.48134911 </i>
    <i name="hartreedc">  -4575.38508024 </i>
    <i name="XCdc">    170.96865285 </i>
    <i name="pawpsdc">   4410.00510618 </i>
    <i name="pawaedc">  -4418.34587993 </i>
    <i name="eentropy">     -0.00000000 </i>
    <i name="bandstr">   -637.75564214 </i>
    <i name="atom">   1805.79685712 </i>
    <i name="e_fr_energy">   -115.87343462 </i>
    <i name="e_wo_entrp">   -115.87343462 </i>
    <i name="e_0_energy">   -115.87343462 </i>
   </energy>
  </scstep>
  <scstep>
   <time name="diag">    0.93    0.93</time>
   <time name="diis">    4.67    4.68</time>
   <time name="orth">    0.04    0.04</time>
   <time name="total">    8.83    8.83</time>
   <energy>
    <i name="e_fr_energy">   -115.87399666 </i>
    <i name="e_wo_entrp">   -115.87399666 </i>
    <i name="e_0_energy">   -115.87399666 </i>
   </energy>
  </scstep>
  <scstep>
   <time name="diag">    0.40    0.40</time>
   <time name="diis">    2.24    2.24</time>
   <time name="orth">    0.02    0.02</time>
   <time name="total">    4.48    4.49</time>
   <energy>
    <i name="e_fr_energy">   -115.87405106 </i>
    <i name="e_wo_entrp">   -115.87405106 </i>
    <i name="e_0_energy">   -115.87405106 </i>
   </energy>
  </scstep>
  <scstep>
   <time name="diag">    0.39    0.39</time>
   <time name="diis">    2.20    2.20</time>
   <time name="orth">    0.01    0.01</time>
   <time name="total">    4.31    4.31</time>
   <energy>
    <i name="e_fr_energy">   -115.87415381 </i>
    <i name="e_wo_entrp">   -115.87415381 </i>
    <i name="e_0_energy">   -115.87415381 </i>
   </energy>
  </scstep>
  <scstep>
   <time name="diag">    0.38    0.38</time>
   <time name="diis">    1.61    1.61</time>
   <time name="orth">    0.00    0.00</time>
   <time name="total">    3.55    3.55</time>
   <energy>
    <i name="e_fr_energy">   -115.87419256 </i>
    <i name="e_wo_entrp">   -115.87419256 </i>
    <i name="e_0_energy">   -115.87419256 </i>
   </energy>
  </scstep>
  <scstep>
   <time name="diag">    0.13    0.13</time>
   <time name="diis">    0.67    0.67</time>
   <time name="orth">    0.00    0.00</time>
   <time name="total">    1.62    1.62</time>
   <energy>
    <i name="e_fr_energy">   -115.87420747 </i>
    <i name="e_wo_entrp">   -115.87420747 </i>
    <i name="e_0_energy">   -115.87420747 </i>
   </energy>
  </scstep>
  <scstep>
   <time name="diag">    0.14    0.14</time>
   <time name="diis">    0.57    0.57</time>
   <time name="orth">    0.00    0.00</time>
   <time name="total">    1.36    1.36</time>
   <energy>
    <i name="alphaZ">      3.36120243 </i>
    <i name="ewald">   3125.48134911 </i>
    <i name="hartreedc">  -4574.21801993 </i>
    <i name="XCdc">    170.91464575 </i>
    <i name="pawpsdc">   4381.26316797 </i>
    <i name="pawaedc">  -4389.58383427 </i>
    <i name="eentropy">     -0.00000000 </i>
    <i name="bandstr">   -638.88957739 </i>
    <i name="atom">   1805.79685712 </i>
    <i name="e_fr_energy">   -115.87420921 </i>
    <i name="e_wo_entrp">   -115.87420921 </i>
    <i name="e_0_energy">   -115.87420921 </i>
   </energy>
  </scstep>
  <structure>
   <crystal>
    <varray name="basis" >
     <v>      15.00000000       0.00000000       0.00000000 </v>
     <v>       0.00000000      15.00000000       0.00000000 </v>
     <v>       0.00000000       0.00000000      15.00000000 </v>
    </varray>
    <i name="volume">   3375.00000000 </i>
    <varray name="rec_basis" >
     <v>       0.06666667       0.00000000       0.00000000 </v>
     <v>       0.00000000       0.06666667       0.00000000 </v>
     <v>       0.00000000       0.00000000       0.06666667 </v>
    </varray>
   </crystal>
   <varray name="positions" >
    <v>       0.37306145       0.54359168       0.58450261 </v>
    <v>       0.36923230       0.45486234       0.57752626 </v>
    <v>       0.45123242       0.39845773       0.57840503 </v>
    <v>       0.46214223       0.58830209       0.59097989 </v>
    <v>       0.52568296       0.54418703       0.52282766 </v>
    <v>       0.54019460       0.44770484       0.55568395 </v>
    <v>       0.60754950       0.59541905       0.51711844 </v>
    <v>       0.58898549       0.39097943       0.49452925 </v>
    <v>       0.30609876       0.41954902       0.57033128 </v>
    <v>       0.46187245       0.36780458       0.64403552 </v>
    <v>       0.44249367       0.34208738       0.53290299 </v>
    <v>       0.31330307       0.58483501       0.58326746 </v>
    <v>       0.49347143       0.57823987       0.65698875 </v>
    <v>       0.45761418       0.66048552       0.58163563 </v>
    <v>       0.49590883       0.54352970       0.45581409 </v>
    <v>       0.57946508       0.45331632       0.61715561 </v>
    <v>       0.66782219       0.64477345       0.51707097 </v>
    <v>       0.61830000       0.33728232       0.44628643 </v>
   </varray>
  </structure>
  <varray name="forces" >
   <v>      -0.02117290      -0.02872665       0.15512557 </v>
   <v>      -0.01948365       0.04103364       0.05956601 </v>
   <v>      -0.01565088      -0.14364678       0.00483684 </v>
   <v>      -0.01953829       0.09062961       0.01403856 </v>
   <v>      -0.00605435       0.00322037      -0.05280467 </v>
   <v>       0.06703505      -0.01793739       0.07615566 </v>
   <v>       0.30121827       0.32607557       0.09433039 </v>
   <v>       0.11208074      -0.32400669      -0.36091910 </v>
   <v>      -0.10481431       0.03857311       0.01451113 </v>
   <v>      -0.17691820      -0.08418894       0.19218703 </v>
   <v>      -0.04112597      -0.10733897      -0.15210547 </v>
   <v>      -0.09878746      -0.00322117       0.01737063 </v>
   <v>      -0.14440160       0.10684488       0.05084558 </v>
   <v>       0.01370203       0.09741290      -0.17790187 </v>
   <v>      -0.18667361      -0.00546418      -0.02209066 </v>
   <v>       0.15602939      -0.00088691       0.12010650 </v>
   <v>       0.02990125      -0.19433976      -0.06076029 </v>
   <v>       0.15465451       0.20596736       0.02750817 </v>
  </varray>
  <varray name="stress" >
   <v>      -0.24106529      -0.02046320      -0.29839050 </v>
   <v>      -0.02046320      -0.64121242       0.02103961 </v>
   <v>      -0.29839050       0.02103961      -0.79862814 </v>
  </varray>
  <energy>
   <i name="e_fr_energy">   -116.11561352 </i>
   <i name="e_wo_entrp">   -116.11561352 </i>
   <i name="e_0_energy">   -116.11561352 </i>
  </energy>
  <time name="totalsc">   69.21   70.68</time>
 </calculation>
 <calculation>
  <scstep>
   <time name="dav">    4.95    5.06</time>
   <time name="total">    7.42    7.60</time>
   <energy>
    <i name="alphaZ">      3.36120243 </i>
    <i name="ewald">   3112.57635700 </i>
    <i name="hartreedc">  -4562.67654235 </i>
    <i name="XCdc">    170.79623810 </i>
    <i name="pawpsdc">   4382.01683367 </i>
    <i name="pawaedc">  -4390.33746447 </i>
    <i name="eentropy">     -0.00000000 </i>
    <i name="bandstr">   -637.42110531 </i>
    <i name="atom">   1805.79685712 </i>
    <i name="e_fr_energy">   -115.88762380 </i>
    <i name="e_wo_entrp">   -115.88762380 </i>
    <i name="e_0_energy">   -115.88762380 </i>
   </energy>
  </scstep>
  <scstep>
   <time name="diag">    0.87    0.89</time>
   <time name="diis">    4.94    5.20</time>
   <time name="orth">    0.03    0.05</time>
   <time name="total">    9.50   10.12</time>
   <energy>
    <i name="e_fr_energy">   -115.89030609 </i>
    <i name="e_wo_entrp">   -115.89030609 </i>
    <i name="e_0_energy">   -115.89030609 </i>
   </energy>
  </scstep>
  <scstep>
   <time name="diag">    0.53    0.53</time>
   <time name="diis">    6.19    6.36</time>
   <time name="orth">    0.03    0.03</time>
   <time name="total">    9.90   10.24</time>
   <energy>
    <i name="e_fr_energy">   -115.89086258 </i>
    <i name="e_wo_entrp">   -115.89086258 </i>
    <i name="e_0_energy">   -115.89086258 </i>
   </energy>
  </scstep>
  <scstep>
   <time name="diag">    0.55    0.62</time>
   <time name="diis">    2.92    3.27</time>
   <time name="orth">    0.01    0.01</time>
   <time name="total">    5.94    6.43</time>
   <energy>
    <i name="e_fr_energy">   -115.89118690 </i>
    <i name="e_wo_entrp">   -115.89118690 </i>
    <i name="e_0_energy">   -115.89118690 </i>
   </energy>
  </scstep>
  <scstep>
   <time name="diag">    0.75    0.75</time>
   <time name="diis">    4.59    5.11</time>
   <time name="orth">    0.03    0.03</time>
   <time name="total">    7.69    8.22</time>
   <energy>
    <i name="e_fr_energy">   -115.89127553 </i>
    <i name="e_wo_entrp">   -115.89127553 </i>
    <i name="e_0_energy">   -115.89127553 </i>
   </energy>
  </scstep>
  <scstep>
   <time name="diag">    0.46    0.47</time>
   <time name="diis">    2.86    2.88</time>
   <time name="orth">    0.02    0.02</time>
   <time name="total">    5.33    5.40</time>
   <energy>
    <i name="e_fr_energy">   -115.89129771 </i>
    <i name="e_wo_entrp">   -115.89129771 </i>
    <i name="e_0_energy">   -115.89129771 </i>
   </energy>
  </scstep>
  <scstep>
   <time name="diag">    0.51    0.51</time>
   <time name="diis">    1.70    1.70</time>
   <time name="orth">    0.02    0.02</time>
   <time name="total">    4.29    4.29</time>
   <energy>
    <i name="e_fr_energy">   -115.89130802 </i>
    <i name="e_wo_entrp">   -115.89130802 </i>
    <i name="e_0_energy">   -115.89130802 </i>
   </energy>
  </scstep>
  <scstep>
   <time name="diag">    0.41    0.41</time>
   <time name="diis">    1.48    1.49</time>
   <time name="orth">    0.01    0.01</time>
   <time name="total">    3.53    3.54</time>
   <energy>
    <i name="e_fr_energy">   -115.89132324 </i>
    <i name="e_wo_entrp">   -115.89132324 </i>
    <i name="e_0_energy">   -115.89132324 </i>
   </energy>
  </scstep>
  <scstep>
   <time name="diag">    0.33    0.33</time>
   <time name="diis">    0.97    1.05</time>
   <time name="orth">    0.00    0.00</time>
   <time name="total">    2.37    2.45</time>
   <energy>
    <i name="alphaZ">      3.36120243 </i>
    <i name="ewald">   3112.57635700 </i>
    <i name="hartreedc">  -4561.89720092 </i>
    <i name="XCdc">    170.77504219 </i>
    <i name="pawpsdc">   4359.32167636 </i>
    <i name="pawaedc">  -4367.63509264 </i>
    <i name="eentropy">     -0.00000000 </i>
    <i name="bandstr">   -638.19017094 </i>
    <i name="atom">   1805.79685712 </i>
    <i name="e_fr_energy">   -115.89132941 </i>
    <i name="e_wo_entrp">   -115.89132941 </i>
    <i name="e_0_energy">   -115.89132941 </i>
   </energy>
  </scstep>
  <structure>
   <crystal>
    <varray name="basis" >
     <v>      15.00000000       0.00000000       0.00000000 </v>
     <v>       0.00000000      15.00000000       0.00000000 </v>
     <v>       0.00000000       0.00000000      15.00000000 </v>
    </varray>
    <i name="volume">   3375.00000000 </i>
    <varray name="rec_basis" >
     <v>       0.06666667       0.00000000       0.00000000 </v>
     <v>       0.00000000       0.06666667       0.00000000 </v>
     <v>       0.00000000       0.00000000       0.06666667 </v>
    </varray>
   </crystal>
   <varray name="positions" >
    <v>       0.37285061       0.54346136       0.58505084 </v>
    <v>       0.36909869       0.45483108       0.57760956 </v>
    <v>       0.45113292       0.39814721       0.57882693 </v>
    <v>       0.46205477       0.58841518       0.59103724 </v>
    <v>       0.52579119       0.54426341       0.52253142 </v>
    <v>       0.54066390       0.44752344       0.55553843 </v>
    <v>       0.60780450       0.59592943       0.51744609 </v>
    <v>       0.58834944       0.39052217       0.49335050 </v>
    <v>       0.30595601       0.41957944       0.56999158 </v>
    <v>       0.46156338       0.36851366       0.64520830 </v>
    <v>       0.44255058       0.34135917       0.53338223 </v>
    <v>       0.31306596       0.58477891       0.58307269 </v>
    <v>       0.49305854       0.57819653       0.65734878 </v>
    <v>       0.45771249       0.66080969       0.58135941 </v>
    <v>       0.49507384       0.54366772       0.45565401 </v>
    <v>       0.58027397       0.45315276       0.61710913 </v>
    <v>       0.66849227       0.64454885       0.51670957 </v>
    <v>       0.61821335       0.33730012       0.44519394 </v>
   </varray>
  </structure>
  <varray name="forces" >
   <v>       0.03441497       0.10483229       0.03831233 </v>
   <v>       0.02385832      -0.06493599       0.05111888 </v>
   <v>       0.07271983      -0.08363939      -0.00070793 </v>
   <v>      -0.00516121       0.06749407       0.04290952 </v>
   <v>      -0.04661041       0.02950498       0.07054836 </v>
   <v>      -0.07360052      -0.06093356       0.03912458 </v>
   <v>      -0.01253076       0.04343844      -0.01817952 </v>
   <v>       0.03915121      -0.00769914      -0.01110031 </v>
   <v>      -0.09698246       0.03982647       0.02286193 </v>
   <v>      -0.16414005      -0.07074544       0.06421570 </v>
   <v>      -0.03285065      -0.01555944      -0.02986624 </v>
   <v>      -0.07075156      -0.02848860       0.04340587 </v>
   <v>      -0.12639795       0.13833715      -0.03380773 </v>
   <v>      -0.00305755      -0.02274603      -0.13666642 </v>
   <v>      -0.05267516       0.00453226       0.07817773 </v>
   <v>       0.11077587      -0.03951921      -0.02727187 </v>
   <v>       0.18789975      -0.03667224      -0.02618398 </v>
   <v>       0.21593834       0.00297338      -0.16689090 </v>
  </varray>
  <varray name="stress" >
   <v>      -0.54149491      -0.06094179      -0.32048813 </v>
   <v>      -0.06094179      -0.87633740       0.04917083 </v>
   <v>      -0.32048813       0.04917083      -1.10668638 </v>
  </varray>
  <energy>
   <i name="e_fr_energy">   -116.13275177 </i>
   <i name="e_wo_entrp">   -116.13275177 </i>
   <i name="e_0_energy">   -116.13275177 </i>
  </energy>
  <time name="totalsc">   77.83   80.47</time>
 </calculation>
 <calculation>
  <scstep>
   <time name="dav">    3.58    3.61</time>
   <time name="total">    6.87    6.93</time>
   <energy>
    <i name="alphaZ">      3.36120243 </i>
    <i name="ewald">   3113.13425688 </i>
    <i name="hartreedc">  -4562.42550295 </i>
    <i name="XCdc">    170.78093256 </i>
    <i name="pawpsdc">   4359.43148991 </i>
    <i name="pawaedc">  -4367.74496058 </i>
    <i name="eentropy">     -0.00000000 </i>
    <i name="bandstr">   -638.22618135 </i>
    <i name="atom">   1805.79685712 </i>
    <i name="e_fr_energy">   -115.89190598 </i>
    <i name="e_wo_entrp">   -115.89190598 </i>
    <i name="e_0_energy">   -115.89190598 </i>
   </energy>
  </scstep>
  <scstep>
   <time name="diag">    0.54    0.54</time>
   <time name="diis">    3.63    3.77</time>
   <time name="orth">    0.03    0.03</time>
   <time name="total">    6.51    6.76</time>
   <energy>
    <i name="e_fr_energy">   -115.89192009 </i>
    <i name="e_wo_entrp">   -115.89192009 </i>
    <i name="e_0_energy">   -115.89192009 </i>
   </energy>
  </scstep>
  <scstep>
   <time name="diag">    0.63    0.64</time>
   <time name="diis">    3.43    3.45</time>
   <time name="orth">    0.03    0.04</time>
   <time name="total">    6.07    6.12</time>
   <energy>
    <i name="alphaZ">      3.36120243 </i>
    <i name="ewald">   3113.13425688 </i>
    <i name="hartreedc">  -4562.42355748 </i>
    <i name="XCdc">    170.77991329 </i>
    <i name="pawpsdc">   4359.20489957 </i>
    <i name="pawaedc">  -4367.51785451 </i>
    <i name="eentropy">     -0.00000000 </i>
    <i name="bandstr">   -638.22763769 </i>
    <i name="atom">   1805.79685712 </i>
    <i name="e_fr_energy">   -115.89192038 </i>
    <i name="e_wo_entrp">   -115.89192038 </i>
    <i name="e_0_energy">   -115.89192038 </i>
   </energy>
  </scstep>
  <structure>
   <crystal>
    <varray name="basis" >
     <v>      15.00000000       0.00000000       0.00000000 </v>
     <v>       0.00000000      15.00000000       0.00000000 </v>
     <v>       0.00000000       0.00000000      15.00000000 </v>
    </varray>
    <i name="volume">   3375.00000000 </i>
    <varray name="rec_basis" >
     <v>       0.06666667       0.00000000       0.00000000 </v>
     <v>       0.00000000       0.06666667       0.00000000 </v>
     <v>       0.00000000       0.00000000       0.06666667 </v>
    </varray>
   </crystal>
   <varray name="positions" >
    <v>       0.37288846       0.54350570       0.58500672 </v>
    <v>       0.36912588       0.45481161       0.57761795 </v>
    <v>       0.45118332       0.39814762       0.57880321 </v>
    <v>       0.46206189       0.58842510       0.59106026 </v>
    <v>       0.52575291       0.54426618       0.52258754 </v>
    <v>       0.54057754       0.44751488       0.55555596 </v>
    <v>       0.60778293       0.59590505       0.51739995 </v>
    <v>       0.58840154       0.39054848       0.49341633 </v>
    <v>       0.30593380       0.41958248       0.57001059 </v>
    <v>       0.46154169       0.36847756       0.64514988 </v>
    <v>       0.44254471       0.34140997       0.53339534 </v>
    <v>       0.31305898       0.58477281       0.58309497 </v>
    <v>       0.49304710       0.57823628       0.65730023 </v>
    <v>       0.45770463       0.66075780       0.58135068 </v>
    <v>       0.49512691       0.54366580       0.45570400 </v>
    <v>       0.58026014       0.45313944       0.61706663 </v>
    <v>       0.66849254       0.64454237       0.51672584 </v>
    <v>       0.61824643       0.33730506       0.44519667 </v>
   </varray>
  </structure>
  <varray name="forces" >
   <v>       0.01303202       0.04715552       0.04812663 </v>
   <v>       0.01427723      -0.02099507       0.04872734 </v>
   <v>       0.03683207      -0.07390681       0.01219240 </v>
   <v>      -0.01377218       0.06178891       0.01625857 </v>
   <v>      -0.02835094       0.02772349       0.05576469 </v>
   <v>      -0.02741814      -0.05582615       0.03430318 </v>
   <v>       0.02509834       0.07082909      -0.00234297 </v>
   <v>       0.05517241      -0.06062982      -0.06882477 </v>
   <v>      -0.08198791       0.04483600       0.02477861 </v>
   <v>      -0.15899417      -0.07402883       0.07629997 </v>
   <v>      -0.03246326      -0.03450943      -0.04782368 </v>
   <v>      -0.06630883      -0.02705432       0.04105831 </v>
   <v>      -0.11629490       0.13285755      -0.00339474 </v>
   <v>      -0.00239077       0.00350246      -0.13904528 </v>
   <v>      -0.06848542       0.00468373       0.06702214 </v>
   <v>       0.10726027      -0.03671611      -0.01555715 </v>
   <v>       0.15376889      -0.06369978      -0.02953084 </v>
   <v>       0.19102529       0.05398957      -0.11801241 </v>
  </varray>
  <varray name="stress" >
   <v>      -0.53483914      -0.05650112      -0.30447207 </v>
   <v>      -0.05650111      -0.90366116       0.03045902 </v>
   <v>      -0.30447208       0.03045902      -1.07876720 </v>
  </varray>
  <energy>
   <i name="e_fr_energy">   -116.13331597 </i>
   <i name="e_wo_entrp">   -116.13331597 </i>
   <i name="e_0_energy">   -116.13331597 </i>
  </energy>
  <time name="totalsc">   37.05   37.53</time>
 </calculation>
 <calculation>
  <scstep>
   <time name="dav">    2.04    2.04</time>
   <time name="total">    3.86    3.86</time>
   <energy>
    <i name="alphaZ">      3.36120243 </i>
    <i name="ewald">   3111.84006085 </i>
    <i name="hartreedc">  -4561.11959397 </i>
    <i name="XCdc">    170.77513868 </i>
    <i name="pawpsdc">   4359.06545114 </i>
    <i name="pawaedc">  -4367.37830225 </i>
    <i name="eentropy">     -0.00000000 </i>
    <i name="bandstr">   -638.23554128 </i>
    <i name="atom">   1805.79685712 </i>
    <i name="e_fr_energy">   -115.89472727 </i>
    <i name="e_wo_entrp">   -115.89472727 </i>
    <i name="e_0_energy">   -115.89472727 </i>
   </energy>
  </scstep>
  <scstep>
   <time name="diag">    0.35    0.35</time>
   <time name="diis">    2.24    2.24</time>
   <time name="orth">    0.01    0.01</time>
   <time name="total">    4.30    4.30</time>
   <energy>
    <i name="e_fr_energy">   -115.89479336 </i>
    <i name="e_wo_entrp">   -115.89479336 </i>
    <i name="e_0_energy">   -115.89479336 </i>
   </energy>
  </scstep>
  <scstep>
   <time name="diag">    0.34    0.34</time>
   <time name="diis">    2.16    2.16</time>
   <time name="orth">    0.01    0.01</time>
   <time name="total">    4.22    4.22</time>
   <energy>
    <i name="e_fr_energy">   -115.89483005 </i>
    <i name="e_wo_entrp">   -115.89483005 </i>
    <i name="e_0_energy">   -115.89483005 </i>
   </energy>
  </scstep>
  <scstep>
   <time name="diag">    0.34    0.34</time>
   <time name="diis">    2.17    2.17</time>
   <time name="orth">    0.01    0.01</time>
   <time name="total">    4.19    4.19</time>
   <energy>
    <i name="e_fr_energy">   -115.89484748 </i>
    <i name="e_wo_entrp">   -115.89484748 </i>
    <i name="e_0_energy">   -115.89484748 </i>
   </energy>
  </scstep>
  <scstep>
   <time name="diag">    0.30    0.30</time>
   <time name="diis">    1.61    1.61</time>
   <time name="orth">    0.01    0.01</time>
   <time name="total">    3.31    3.31</time>
   <energy>
    <i name="alphaZ">      3.36120243 </i>
    <i name="ewald">   3111.84006085 </i>
    <i name="hartreedc">  -4561.15824865 </i>
    <i name="XCdc">    170.78006393 </i>
    <i name="pawpsdc">   4360.18178364 </i>
    <i name="pawaedc">  -4368.49632833 </i>
    <i name="eentropy">     -0.00000000 </i>
    <i name="bandstr">   -638.20024275 </i>
    <i name="atom">   1805.79685712 </i>
    <i name="e_fr_energy">   -115.89485177 </i>
    <i name="e_wo_entrp">   -115.89485177 </i>
    <i name="e_0_energy">   -115.89485177 </i>
   </energy>
  </scstep>
  <structure>
   <crystal>
    <varray name="basis" >
     <v>      15.00000000       0.00000000       0.00000000 </v>
     <v>       0.00000000      15.00000000       0.00000000 </v>
     <v>       0.00000000       0.00000000      15.00000000 </v>
    </varray>
    <i name="volume">   3375.00000000 </i>
    <varray name="rec_basis" >
     <v>       0.06666667       0.00000000       0.00000000 </v>
     <v>       0.00000000       0.06666667       0.00000000 </v>
     <v>       0.00000000       0.00000000       0.06666667 </v>
    </varray>
   </crystal>
   <varray name="positions" >
    <v>       0.37289356       0.54350237       0.58504626 </v>
    <v>       0.36914546       0.45481286       0.57765642 </v>
    <v>       0.45122773       0.39809193       0.57888076 </v>
    <v>       0.46204187       0.58846713       0.59108654 </v>
    <v>       0.52571419       0.54429483       0.52264058 </v>
    <v>       0.54055402       0.44744697       0.55554779 </v>
    <v>       0.60782731       0.59599604       0.51738576 </v>
    <v>       0.58838521       0.39043475       0.49320657 </v>
    <v>       0.30586882       0.41961038       0.56997506 </v>
    <v>       0.46141209       0.36856703       0.64532084 </v>
    <v>       0.44254571       0.34131995       0.53353375 </v>
    <v>       0.31299059       0.58473959       0.58309957 </v>
    <v>       0.49292738       0.57832239       0.65731978 </v>
    <v>       0.45770963       0.66074776       0.58125228 </v>
    <v>       0.49502485       0.54369893       0.45578058 </v>
    <v>       0.58042992       0.45306192       0.61695015 </v>
    <v>       0.66863066       0.64443412       0.51666835 </v>
    <v>       0.61827339       0.33739269       0.44497745 </v>
   </varray>
  </structure>
  <varray name="forces" >
   <v>      -0.01067299       0.05887698       0.04258232 </v>
   <v>      -0.00786043      -0.04392554       0.03719356 </v>
   <v>       0.00565344      -0.05381856       0.01889283 </v>
   <v>      -0.02021533       0.04284808       0.00083878 </v>
   <v>       0.00824900       0.02603345       0.04655717 </v>
   <v>       0.02148426      -0.06713434      -0.00597265 </v>
   <v>      -0.07597525      -0.02201259       0.00162642 </v>
   <v>      -0.05063092       0.12336362       0.09687923 </v>
   <v>      -0.04962319       0.05723881       0.03078210 </v>
   <v>      -0.14670013      -0.07793172       0.07128611 </v>
   <v>      -0.03185200      -0.03792656      -0.04695556 </v>
   <v>      -0.04609672      -0.03803631       0.04230104 </v>
   <v>      -0.10017565       0.13183760       0.01680661 </v>
   <v>      -0.00715929       0.02219337      -0.13615201 </v>
   <v>      -0.06173986       0.00649383       0.06697627 </v>
   <v>       0.10034752      -0.04121176      -0.01902710 </v>
   <v>       0.21257486      -0.00840879      -0.03041580 </v>
   <v>       0.26039270      -0.07847957      -0.23419935 </v>
  </varray>
  <varray name="stress" >
   <v>      -0.54942626      -0.06157630      -0.30846044 </v>
   <v>      -0.06157630      -0.89204923       0.05870381 </v>
   <v>      -0.30846044       0.05870381      -1.05130916 </v>
  </varray>
  <energy>
   <i name="e_fr_energy">   -116.13623054 </i>
   <i name="e_wo_entrp">   -116.13623054 </i>
   <i name="e_0_energy">   -116.13623054 </i>
  </energy>
  <time name="totalsc">   43.63   44.10</time>
 </calculation>
 <calculation>
  <scstep>
   <time name="dav">    3.14    3.16</time>
   <time name="total">    5.51    5.91</time>
   <energy>
    <i name="alphaZ">      3.36120243 </i>
    <i name="ewald">   3107.74866455 </i>
    <i name="hartreedc">  -4557.68695387 </i>
    <i name="XCdc">    170.74289335 </i>
    <i name="pawpsdc">   4359.88937144 </i>
    <i name="pawaedc">  -4368.20388421 </i>
    <i name="eentropy">     -0.00000000 </i>
    <i name="bandstr">   -637.54775177 </i>
    <i name="atom">   1805.79685712 </i>
    <i name="e_fr_energy">   -115.89960096 </i>
    <i name="e_wo_entrp">   -115.89960096 </i>
    <i name="e_0_energy">   -115.89960096 </i>
   </energy>
  </scstep>
  <scstep>
   <time name="diag">    0.57    0.57</time>
   <time name="diis">    5.13    5.16</time>
   <time name="orth">    0.05    0.09</time>
   <time name="total">    8.52    8.69</time>
   <energy>
    <i name="e_fr_energy">   -115.90001440 </i>
    <i name="e_wo_entrp">   -115.90001440 </i>
    <i name="e_0_energy">   -115.90001440 </i>
   </energy>
  </scstep>
  <scstep>
   <time name="diag">    0.52    0.54</time>
   <time name="diis">    2.47    2.49</time>
   <time name="orth">    0.01    0.01</time>
   <time name="total">    5.92    6.09</time>
   <energy>
    <i name="e_fr_energy">   -115.90015042 </i>
    <i name="e_wo_entrp">   -115.90015042 </i>
    <i name="e_0_energy">   -115.90015042 </i>
   </energy>
  </scstep>
  <scstep>
   <time name="diag">    0.39    0.39</time>
   <time name="diis">    2.33    2.33</time>
   <time name="orth">    0.01    0.01</time>
   <time name="total">    4.54    4.54</time>
   <energy>
    <i name="e_fr_energy">   -115.90021802 </i>
    <i name="e_wo_entrp">   -115.90021802 </i>
    <i name="e_0_energy">   -115.90021802 </i>
   </energy>
  </scstep>
  <scstep>
   <time name="diag">    0.34    0.34</time>
   <time name="diis">    1.76    1.76</time>
   <time name="orth">    0.01    0.01</time>
   <time name="total">    3.82    3.83</time>
   <energy>
    <i name="e_fr_energy">   -115.90023290 </i>
    <i name="e_wo_entrp">   -115.90023290 </i>
    <i name="e_0_energy">   -115.90023290 </i>
   </energy>
  </scstep>
  <scstep>
   <time name="diag">    0.30    0.30</time>
   <time name="diis">    1.22    1.22</time>
   <time name="orth">    0.02    0.02</time>
   <time name="total">    2.90    2.90</time>
   <energy>
    <i name="alphaZ">      3.36120243 </i>
    <i name="ewald">   3107.74866455 </i>
    <i name="hartreedc">  -4557.24272328 </i>
    <i name="XCdc">    170.72369320 </i>
    <i name="pawpsdc">   4348.66285961 </i>
    <i name="pawaedc">  -4356.96997304 </i>
    <i name="eentropy">     -0.00000000 </i>
    <i name="bandstr">   -637.98081870 </i>
    <i name="atom">   1805.79685712 </i>
    <i name="e_fr_energy">   -115.90023811 </i>
    <i name="e_wo_entrp">   -115.90023811 </i>
    <i name="e_0_energy">   -115.90023811 </i>
   </energy>
  </scstep>
  <structure>
   <crystal>
    <varray name="basis" >
     <v>      15.00000000       0.00000000       0.00000000 </v>
     <v>       0.00000000      15.00000000       0.00000000 </v>
     <v>       0.00000000       0.00000000      15.00000000 </v>
    </varray>
    <i name="volume">   3375.00000000 </i>
    <varray name="rec_basis" >
     <v>       0.06666667       0.00000000       0.00000000 </v>
     <v>       0.00000000       0.06666667       0.00000000 </v>
     <v>       0.00000000       0.00000000       0.06666667 </v>
    </varray>
   </crystal>
   <varray name="positions" >
    <v>       0.37287047       0.54349723       0.58514249 </v>
    <v>       0.36915247       0.45479736       0.57771857 </v>
    <v>       0.45126986       0.39799397       0.57903807 </v>
    <v>       0.46199768       0.58853161       0.59111979 </v>
    <v>       0.52568659       0.54434659       0.52270489 </v>
    <v>       0.54058360       0.44731288       0.55549600 </v>
    <v>       0.60783391       0.59610348       0.51738610 </v>
    <v>       0.58823924       0.39036629       0.49292419 </v>
    <v>       0.30577519       0.41967098       0.56990520 </v>
    <v>       0.46118152       0.36874402       0.64566977 </v>
    <v>       0.44254882       0.34112499       0.53378168 </v>
    <v>       0.31287656       0.58467174       0.58309954 </v>
    <v>       0.49271324       0.57846884       0.65739023 </v>
    <v>       0.45771953       0.66076763       0.58106756 </v>
    <v>       0.49480912       0.54376241       0.45589976 </v>
    <v>       0.58075566       0.45292010       0.61675528 </v>
    <v>       0.66895443       0.64428583       0.51655060 </v>
    <v>       0.61838235       0.33743393       0.44445555 </v>
   </varray>
  </structure>
  <varray name="forces" >
   <v>      -0.02565308       0.06154307       0.02504576 </v>
   <v>      -0.02006086      -0.05480877       0.02315868 </v>
   <v>      -0.02631420      -0.03160914       0.02358746 </v>
   <v>      -0.02750121       0.02333892      -0.00854748 </v>
   <v>       0.01314952       0.00644260       0.04273915 </v>
   <v>       0.02727999      -0.03671648      -0.00048537 </v>
   <v>       0.02906154       0.03536352      -0.00412250 </v>
   <v>       0.06958153      -0.05830016      -0.07807159 </v>
   <v>      -0.01786090       0.06460000       0.03858776 </v>
   <v>      -0.12675800      -0.07793290       0.05224219 </v>
   <v>      -0.03005757      -0.03124821      -0.03169680 </v>
   <v>      -0.02733100      -0.04599693       0.04576848 </v>
   <v>      -0.08053786       0.13304566       0.03169118 </v>
   <v>      -0.01515773       0.03075685      -0.12782900 </v>
   <v>      -0.04388464       0.00813894       0.07474035 </v>
   <v>       0.08467711      -0.04859671      -0.03093542 </v>
   <v>       0.08199517      -0.09927927      -0.02657376 </v>
   <v>       0.13537220       0.12125902      -0.04929908 </v>
  </varray>
  <varray name="stress" >
   <v>      -0.69807306      -0.07128488      -0.25799741 </v>
   <v>      -0.07128488      -1.07951872      -0.00941909 </v>
   <v>      -0.25799741      -0.00941909      -1.13680446 </v>
  </varray>
  <energy>
   <i name="e_fr_energy">   -116.14153423 </i>
   <i name="e_wo_entrp">   -116.14153423 </i>
   <i name="e_0_energy">   -116.14153423 </i>
  </energy>
  <time name="totalsc">   55.76   56.89</time>
 </calculation>
 <calculation>
  <scstep>
   <time name="dav">    3.56    3.65</time>
   <time name="total">    6.03    6.16</time>
   <energy>
    <i name="alphaZ">      3.36120243 </i>
    <i name="ewald">   3108.26423490 </i>
    <i name="hartreedc">  -4557.52026230 </i>
    <i name="XCdc">    170.73709181 </i>
    <i name="pawpsdc">   4348.52061649 </i>
    <i name="pawaedc">  -4356.82770792 </i>
    <i name="eentropy">     -0.00000000 </i>
    <i name="bandstr">   -638.23432403 </i>
    <i name="atom">   1805.79685712 </i>
    <i name="e_fr_energy">   -115.90229151 </i>
    <i name="e_wo_entrp">   -115.90229151 </i>
    <i name="e_0_energy">   -115.90229151 </i>
   </energy>
  </scstep>
  <scstep>
   <time name="diag">    0.33    0.33</time>
   <time name="diis">    2.43    2.43</time>
   <time name="orth">    0.01    0.01</time>
   <time name="total">    4.79    4.80</time>
   <energy>
    <i name="e_fr_energy">   -115.90234572 </i>
    <i name="e_wo_entrp">   -115.90234572 </i>
    <i name="e_0_energy">   -115.90234572 </i>
   </energy>
  </scstep>
  <scstep>
   <time name="diag">    0.34    0.34</time>
   <time name="diis">    2.25    2.25</time>
   <time name="orth">    0.01    0.01</time>
   <time name="total">    4.41    4.41</time>
   <energy>
    <i name="e_fr_energy">   -115.90236681 </i>
    <i name="e_wo_entrp">   -115.90236681 </i>
    <i name="e_0_energy">   -115.90236681 </i>
   </energy>
  </scstep>
  <scstep>
   <time name="diag">    0.26    0.26</time>
   <time name="diis">    1.88    1.88</time>
   <time name="orth">    0.01    0.01</time>
   <time name="total">    3.81    3.81</time>
   <energy>
    <i name="e_fr_energy">   -115.90237723 </i>
    <i name="e_wo_entrp">   -115.90237723 </i>
    <i name="e_0_energy">   -115.90237723 </i>
   </energy>
  </scstep>
  <scstep>
   <time name="diag">    0.37    0.37</time>
   <time name="diis">    1.66    1.66</time>
[...]
   <v>       0.00108709       0.00132943       0.01079160 </v>
   <v>      -0.00125817       0.00096452       0.01251405 </v>
   <v>      -0.00504223      -0.00419214      -0.01166940 </v>
   <v>      -0.00147892       0.00613724      -0.00908963 </v>
   <v>      -0.00039880      -0.00156572      -0.00205088 </v>
   <v>      -0.00184213       0.00010614       0.00367686 </v>
   <v>      -0.00229259      -0.00735710      -0.00076883 </v>
   <v>       0.01261731       0.00244086       0.00870280 </v>
   <v>      -0.00261602       0.00277055       0.02900831 </v>
   <v>      -0.00456812      -0.03234571      -0.01993750 </v>
   <v>      -0.01254323       0.01089483      -0.03487567 </v>
   <v>       0.00098430      -0.00018508       0.02686727 </v>
   <v>       0.00316442       0.02473293      -0.01096202 </v>
   <v>      -0.00834174      -0.00000619      -0.02522722 </v>
   <v>       0.00212321      -0.00594997      -0.00356870 </v>
   <v>      -0.01104537       0.00311586       0.01265538 </v>
   <v>       0.00692178      -0.00756519       0.00319023 </v>
   <v>       0.02452921       0.00667473       0.01074333 </v>
  </varray>
  <varray name="stress" >
   <v>      -1.17718441      -0.00840287      -0.02750987 </v>
   <v>      -0.00840287      -1.16203113       0.00934648 </v>
   <v>      -0.02750987       0.00934648      -1.21622183 </v>
  </varray>
  <energy>
   <i name="e_fr_energy">   -116.23588052 </i>
   <i name="e_wo_entrp">   -116.23588052 </i>
   <i name="e_0_energy">   -116.23588052 </i>
  </energy>
  <time name="totalsc">   31.82   33.54</time>
 </calculation>
 <calculation>
  <scstep>
   <time name="dav">    3.32    3.52</time>
   <time name="total">    5.59    5.92</time>
   <energy>
    <i name="alphaZ">      3.36120243 </i>
    <i name="ewald">   3100.11149368 </i>
    <i name="hartreedc">  -4550.55751906 </i>
    <i name="XCdc">    170.64015873 </i>
    <i name="pawpsdc">   4337.29709815 </i>
    <i name="pawaedc">  -4345.59818333 </i>
    <i name="eentropy">     -0.00000000 </i>
    <i name="bandstr">   -637.04647264 </i>
    <i name="atom">   1805.79685712 </i>
    <i name="e_fr_energy">   -115.99536493 </i>
    <i name="e_wo_entrp">   -115.99536493 </i>
    <i name="e_0_energy">   -115.99536493 </i>
   </energy>
  </scstep>
  <scstep>
   <time name="diag">    0.54    0.54</time>
   <time name="diis">    1.84    2.07</time>
   <time name="orth">    0.01    0.02</time>
   <time name="total">    4.21    4.49</time>
   <energy>
    <i name="alphaZ">      3.36120243 </i>
    <i name="ewald">   3100.11149368 </i>
    <i name="hartreedc">  -4550.55594795 </i>
    <i name="XCdc">    170.64000938 </i>
    <i name="pawpsdc">   4337.32148459 </i>
    <i name="pawaedc">  -4345.62253811 </i>
    <i name="eentropy">     -0.00000000 </i>
    <i name="bandstr">   -637.04792643 </i>
    <i name="atom">   1805.79685712 </i>
    <i name="e_fr_energy">   -115.99536528 </i>
    <i name="e_wo_entrp">   -115.99536528 </i>
    <i name="e_0_energy">   -115.99536528 </i>
   </energy>
  </scstep>
  <structure>
   <crystal>
    <varray name="basis" >
     <v>      15.00000000       0.00000000       0.00000000 </v>
     <v>       0.00000000      15.00000000       0.00000000 </v>
     <v>       0.00000000       0.00000000      15.00000000 </v>
    </varray>
    <i name="volume">   3375.00000000 </i>
    <varray name="rec_basis" >
     <v>       0.06666667       0.00000000       0.00000000 </v>
     <v>       0.00000000       0.06666667       0.00000000 </v>
     <v>       0.00000000       0.00000000       0.06666667 </v>
    </varray>
   </crystal>
   <varray name="positions" >
    <v>       0.37227455       0.54292876       0.58795278 </v>
    <v>       0.36915257       0.45399631       0.58252213 </v>
    <v>       0.45071577       0.39611627       0.58167438 </v>
    <v>       0.45995584       0.59123145       0.58821010 </v>
    <v>       0.52498434       0.54301527       0.52445466 </v>
    <v>       0.53945156       0.44453725       0.55483555 </v>
    <v>       0.60992897       0.59023312       0.51845264 </v>
    <v>       0.58478237       0.39389932       0.48503008 </v>
    <v>       0.30502298       0.41949666       0.57998769 </v>
    <v>       0.46038556       0.36783098       0.64891981 </v>
    <v>       0.43992008       0.33839895       0.53779709 </v>
    <v>       0.31090187       0.58205303       0.58974710 </v>
    <v>       0.48938844       0.59311768       0.65572790 </v>
    <v>       0.45237406       0.66095723       0.56710776 </v>
    <v>       0.49465570       0.54253572       0.45745591 </v>
    <v>       0.58431000       0.44650670       0.61301940 </v>
    <v>       0.67700820       0.62960238       0.51593896 </v>
    <v>       0.61760040       0.35241782       0.42794195 </v>
   </varray>
  </structure>
  <varray name="forces" >
   <v>       0.00175189       0.00111851       0.00965657 </v>
   <v>      -0.00060424       0.00162693       0.01115974 </v>
   <v>      -0.00531107      -0.00497527      -0.01157771 </v>
   <v>      -0.00065619       0.00560211      -0.00874184 </v>
   <v>      -0.00141521      -0.00167592      -0.00204796 </v>
   <v>      -0.00283654       0.00019408       0.00405713 </v>
   <v>       0.00290883      -0.00350048      -0.00068983 </v>
   <v>       0.01323681       0.00118729       0.00855506 </v>
   <v>      -0.00280719       0.00292605       0.02997032 </v>
   <v>      -0.00436992      -0.03277403      -0.02001182 </v>
   <v>      -0.01293260       0.01098898      -0.03499091 </v>
   <v>       0.00082063      -0.00010624       0.02738963 </v>
   <v>       0.00328026       0.02534015      -0.01122092 </v>
   <v>      -0.00856834       0.00049427      -0.02558593 </v>
   <v>       0.00223077      -0.00596681      -0.00324270 </v>
   <v>      -0.01123622       0.00315042       0.01284264 </v>
   <v>       0.00212034      -0.01128774       0.00404449 </v>
   <v>       0.02438797       0.00765769       0.01043403 </v>
  </varray>
  <varray name="stress" >
   <v>      -1.17943430      -0.00928321      -0.02823393 </v>
   <v>      -0.00928321      -1.16347226       0.00897236 </v>
   <v>      -0.02823393       0.00897237      -1.21727916 </v>
  </varray>
  <energy>
   <i name="e_fr_energy">   -116.23589654 </i>
   <i name="e_wo_entrp">   -116.23589654 </i>
   <i name="e_0_energy">   -116.23589654 </i>
  </energy>
  <time name="totalsc">   21.90   23.04</time>
 </calculation>
 <calculation>
  <scstep>
   <time name="dav">    3.02    3.15</time>
   <time name="total">    5.02    5.42</time>
   <energy>
    <i name="alphaZ">      3.36120243 </i>
    <i name="ewald">   3100.12196920 </i>
    <i name="hartreedc">  -4550.56273063 </i>
    <i name="XCdc">    170.64011758 </i>
    <i name="pawpsdc">   4337.32833303 </i>
    <i name="pawaedc">  -4345.62936251 </i>
    <i name="eentropy">     -0.00000000 </i>
    <i name="bandstr">   -637.05178823 </i>
    <i name="atom">   1805.79685712 </i>
    <i name="e_fr_energy">   -115.99540201 </i>
    <i name="e_wo_entrp">   -115.99540201 </i>
    <i name="e_0_energy">   -115.99540201 </i>
   </energy>
  </scstep>
  <scstep>
   <time name="diag">    0.79    0.83</time>
   <time name="diis">    2.50    2.58</time>
   <time name="orth">    0.02    0.02</time>
   <time name="total">    4.90    5.08</time>
   <energy>
    <i name="alphaZ">      3.36120243 </i>
    <i name="ewald">   3100.12196920 </i>
    <i name="hartreedc">  -4550.56440087 </i>
    <i name="XCdc">    170.64019948 </i>
    <i name="pawpsdc">   4337.32808531 </i>
    <i name="pawaedc">  -4345.62913043 </i>
    <i name="eentropy">     -0.00000000 </i>
    <i name="bandstr">   -637.05018464 </i>
    <i name="atom">   1805.79685712 </i>
    <i name="e_fr_energy">   -115.99540240 </i>
    <i name="e_wo_entrp">   -115.99540240 </i>
    <i name="e_0_energy">   -115.99540240 </i>
   </energy>
  </scstep>
  <structure>
   <crystal>
    <varray name="basis" >
     <v>      15.00000000       0.00000000       0.00000000 </v>
     <v>       0.00000000      15.00000000       0.00000000 </v>
     <v>       0.00000000       0.00000000      15.00000000 </v>
    </varray>
    <i name="volume">   3375.00000000 </i>
    <varray name="rec_basis" >
     <v>       0.06666667       0.00000000       0.00000000 </v>
     <v>       0.00000000       0.06666667       0.00000000 </v>
     <v>       0.00000000       0.00000000       0.06666667 </v>
    </varray>
   </crystal>
   <varray name="positions" >
    <v>       0.37227523       0.54292833       0.58795699 </v>
    <v>       0.36915283       0.45399599       0.58252879 </v>
    <v>       0.45071479       0.39611479       0.58167264 </v>
    <v>       0.45995521       0.59123339       0.58820569 </v>
    <v>       0.52498334       0.54301438       0.52445284 </v>
    <v>       0.53944968       0.44453652       0.55483461 </v>
    <v>       0.60993002       0.59023076       0.51845195 </v>
    <v>       0.58478104       0.39389950       0.48502771 </v>
    <v>       0.30502275       0.41949614       0.58000324 </v>
    <v>       0.46038744       0.36782326       0.64891490 </v>
    <v>       0.43991601       0.33840204       0.53779049 </v>
    <v>       0.31090205       0.58205169       0.58975820 </v>
    <v>       0.48938983       0.59312860       0.65572218 </v>
    <v>       0.45236949       0.66095672       0.56709572 </v>
    <v>       0.49465623       0.54253400       0.45745366 </v>
    <v>       0.58430823       0.44650524       0.61301847 </v>
    <v>       0.67700983       0.62959582       0.51594098 </v>
    <v>       0.61759917       0.35242207       0.42793790 </v>
   </varray>
  </structure>
  <varray name="forces" >
   <v>       0.00170793       0.00130576       0.00973864 </v>
   <v>      -0.00070323       0.00149697       0.01125302 </v>
   <v>      -0.00513800      -0.00458497      -0.01143435 </v>
   <v>      -0.00078224       0.00562905      -0.00865421 </v>
   <v>      -0.00107807      -0.00162016      -0.00204018 </v>
   <v>      -0.00230794      -0.00022053       0.00382479 </v>
   <v>       0.00003119      -0.00516687      -0.00066768 </v>
   <v>       0.01244974       0.00232271       0.01010894 </v>
   <v>      -0.00264499       0.00304213       0.02988143 </v>
   <v>      -0.00433115      -0.03283745      -0.01995728 </v>
   <v>      -0.01291398       0.01088923      -0.03519455 </v>
   <v>       0.00094113      -0.00009187       0.02735914 </v>
   <v>       0.00334472       0.02539386      -0.01120968 </v>
   <v>      -0.00850417       0.00030816      -0.02560307 </v>
   <v>       0.00215982      -0.00595823      -0.00355286 </v>
   <v>      -0.01126544       0.00318225       0.01263862 </v>
   <v>       0.00410246      -0.00994603       0.00383234 </v>
   <v>       0.02493223       0.00685598       0.00967695 </v>
  </varray>
  <varray name="stress" >
   <v>      -1.17778845      -0.00916898      -0.02807456 </v>
   <v>      -0.00916898      -1.16197525       0.00924386 </v>
   <v>      -0.02807456       0.00924386      -1.21595657 </v>
  </varray>
  <energy>
   <i name="e_fr_energy">   -116.23593295 </i>
   <i name="e_wo_entrp">   -116.23593295 </i>
   <i name="e_0_energy">   -116.23593295 </i>
  </energy>
  <time name="totalsc">   19.85   21.82</time>
 </calculation>
 <calculation>
  <scstep>
   <time name="dav">    2.56    2.81</time>
   <time name="total">    5.00    5.28</time>
   <energy>
    <i name="alphaZ">      3.36120243 </i>
    <i name="ewald">   3100.19833534 </i>
    <i name="hartreedc">  -4550.63243514 </i>
    <i name="XCdc">    170.64101747 </i>
    <i name="pawpsdc">   4337.33865227 </i>
    <i name="pawaedc">  -4345.63972348 </i>
    <i name="eentropy">     -0.00000000 </i>
    <i name="bandstr">   -637.05962760 </i>
    <i name="atom">   1805.79685712 </i>
    <i name="e_fr_energy">   -115.99572159 </i>
    <i name="e_wo_entrp">   -115.99572159 </i>
    <i name="e_0_energy">   -115.99572159 </i>
   </energy>
  </scstep>
  <scstep>
   <time name="diag">    0.46    0.46</time>
   <time name="diis">    2.79    2.79</time>
   <time name="orth">    0.01    0.01</time>
   <time name="total">    5.39    5.39</time>
   <energy>
    <i name="e_fr_energy">   -115.99572804 </i>
    <i name="e_wo_entrp">   -115.99572804 </i>
    <i name="e_0_energy">   -115.99572804 </i>
   </energy>
  </scstep>
  <scstep>
   <time name="diag">    0.73    0.73</time>
   <time name="diis">    2.25    2.25</time>
   <time name="orth">    0.02    0.02</time>
   <time name="total">    5.05    5.08</time>
   <energy>
    <i name="alphaZ">      3.36120243 </i>
    <i name="ewald">   3100.19833534 </i>
    <i name="hartreedc">  -4550.64040032 </i>
    <i name="XCdc">    170.64133052 </i>
    <i name="pawpsdc">   4337.49503695 </i>
    <i name="pawaedc">  -4345.79619397 </i>
    <i name="eentropy">     -0.00000000 </i>
    <i name="bandstr">   -637.05190231 </i>
    <i name="atom">   1805.79685712 </i>
    <i name="e_fr_energy">   -115.99573424 </i>
    <i name="e_wo_entrp">   -115.99573424 </i>
    <i name="e_0_energy">   -115.99573424 </i>
   </energy>
  </scstep>
  <structure>
   <crystal>
    <varray name="basis" >
     <v>      15.00000000       0.00000000       0.00000000 </v>
     <v>       0.00000000      15.00000000       0.00000000 </v>
     <v>       0.00000000       0.00000000      15.00000000 </v>
    </varray>
    <i name="volume">   3375.00000000 </i>
    <varray name="rec_basis" >
     <v>       0.06666667       0.00000000       0.00000000 </v>
     <v>       0.00000000       0.06666667       0.00000000 </v>
     <v>       0.00000000       0.00000000       0.06666667 </v>
    </varray>
   </crystal>
   <varray name="positions" >
    <v>       0.37228245       0.54292474       0.58799340 </v>
    <v>       0.36915509       0.45399324       0.58258711 </v>
    <v>       0.45070603       0.39610304       0.58165630 </v>
    <v>       0.45994995       0.59125044       0.58816642 </v>
    <v>       0.52497427       0.54300626       0.52443683 </v>
    <v>       0.53943321       0.44452877       0.55482524 </v>
    <v>       0.60993376       0.59020813       0.51844556 </v>
    <v>       0.58476561       0.39390437       0.48501443 </v>
    <v>       0.30502141       0.41949097       0.58014570 </v>
    <v>       0.46040623       0.36775413       0.64886907 </v>
    <v>       0.43987964       0.33843265       0.53772650 </v>
    <v>       0.31090543       0.58203995       0.58986082 </v>
    <v>       0.48940425       0.59322600       0.65566939 </v>
    <v>       0.45232780       0.66095220       0.56698781 </v>
    <v>       0.49466171       0.54251923       0.45743250 </v>
    <v>       0.58428890       0.44649111       0.61301121 </v>
    <v>       0.67702388       0.62953911       0.51595691 </v>
    <v>       0.61759139       0.35245306       0.42790015 </v>
   </varray>
  </structure>
  <varray name="forces" >
   <v>      -0.00015530       0.00258223       0.01168420 </v>
   <v>      -0.00157327      -0.00012513       0.01275297 </v>
   <v>      -0.00478852      -0.00409667      -0.01225987 </v>
   <v>      -0.00224035       0.00670005      -0.01000521 </v>
   <v>       0.00089610      -0.00074542      -0.00253096 </v>
   <v>      -0.00138529       0.00054687       0.00445803 </v>
   <v>      -0.01287422      -0.01360732      -0.00028695 </v>
   <v>       0.01884003      -0.00460761      -0.00050954 </v>
   <v>      -0.00236146       0.00344905       0.02856942 </v>
   <v>      -0.00533507      -0.03296052      -0.01965335 </v>
   <v>      -0.01285323       0.00988169      -0.03489233 </v>
   <v>       0.00095945      -0.00003352       0.02651886 </v>
   <v>       0.00306536       0.02458239      -0.01008941 </v>
   <v>      -0.00790626      -0.00084814      -0.02455205 </v>
   <v>       0.00161640      -0.00599591      -0.00403501 </v>
   <v>      -0.01082199       0.00371002       0.01255890 </v>
   <v>       0.01741602      -0.00047094       0.00248573 </v>
   <v>       0.01950161       0.01203889       0.01978656 </v>
  </varray>
  <varray name="stress" >
   <v>      -1.17123292      -0.00477374      -0.02691715 </v>
   <v>      -0.00477374      -1.16016945       0.00749202 </v>
   <v>      -0.02691715       0.00749202      -1.21794945 </v>
  </varray>
  <energy>
   <i name="e_fr_energy">   -116.23625545 </i>
   <i name="e_wo_entrp">   -116.23625545 </i>
   <i name="e_0_energy">   -116.23625545 </i>
  </energy>
  <time name="totalsc">   32.88   33.32</time>
  <eigenvalues>
   <array>
    <dimension dim="1">band</dimension>
    <dimension dim="2">kpoint</dimension>
    <dimension dim="3">spin</dimension>
    <field>eigene</field>
    <field>occ</field>
    <set>
     <set comment="spin 1">
      <set comment="kpoint 1">
       <r>  -22.8260    1.0000 </r>
       <r>  -22.4831    1.0000 </r>
       <r>  -21.7056    1.0000 </r>
       <r>  -19.7060    1.0000 </r>
       <r>  -19.5706    1.0000 </r>
       <r>  -16.7532    1.0000 </r>
       <r>  -16.4176    1.0000 </r>
       <r>  -13.7673    1.0000 </r>
       <r>  -13.6502    1.0000 </r>
       <r>  -13.1989    1.0000 </r>
       <r>  -11.6778    1.0000 </r>
       <r>  -11.5245    1.0000 </r>
       <r>  -11.1770    1.0000 </r>
       <r>  -10.4252    1.0000 </r>
       <r>  -10.3916    1.0000 </r>
       <r>   -9.6943    1.0000 </r>
       <r>   -9.2092    1.0000 </r>
       <r>   -8.8904    1.0000 </r>
       <r>   -8.4789    1.0000 </r>
       <r>   -8.4430    1.0000 </r>
       <r>   -8.2555    1.0000 </r>
       <r>   -8.0611    1.0000 </r>
       <r>   -7.8922    1.0000 </r>
       <r>   -7.7884    1.0000 </r>
       <r>   -6.5383    1.0000 </r>
       <r>   -1.3294    0.0000 </r>
       <r>   -1.0068    0.0000 </r>
       <r>   -0.7580    0.0000 </r>
       <r>   -0.6676    0.0000 </r>
       <r>   -0.3864    0.0000 </r>
       <r>   -0.2570    0.0000 </r>
       <r>    0.0031    0.0000 </r>
       <r>    0.1043    0.0000 </r>
       <r>    0.1679    0.0000 </r>
       <r>    0.4324    0.0000 </r>
      </set>
     </set>
    </set>
   </array>
  </eigenvalues>
  <separator name="orbital magnetization" >
   <v name="MAGDIPOLOUT">      0.00000000      0.00000000      0.00000000</v>
  </separator>
 </calculation>
 <structure name="finalpos" >
  <crystal>
   <varray name="basis" >
    <v>      15.00000000       0.00000000       0.00000000 </v>
    <v>       0.00000000      15.00000000       0.00000000 </v>
    <v>       0.00000000       0.00000000      15.00000000 </v>
   </varray>
   <i name="volume">   3375.00000000 </i>
   <varray name="rec_basis" >
    <v>       0.06666667       0.00000000       0.00000000 </v>
    <v>       0.00000000       0.06666667       0.00000000 </v>
    <v>       0.00000000       0.00000000       0.06666667 </v>
   </varray>
  </crystal>
  <varray name="positions" >
   <v>       0.37228245       0.54292474       0.58799340 </v>
   <v>       0.36915509       0.45399324       0.58258711 </v>
   <v>       0.45070603       0.39610304       0.58165630 </v>
   <v>       0.45994995       0.59125044       0.58816642 </v>
   <v>       0.52497427       0.54300626       0.52443683 </v>
   <v>       0.53943321       0.44452877       0.55482524 </v>
   <v>       0.60993376       0.59020813       0.51844556 </v>
   <v>       0.58476561       0.39390437       0.48501443 </v>
   <v>       0.30502141       0.41949097       0.58014570 </v>
   <v>       0.46040623       0.36775413       0.64886907 </v>
   <v>       0.43987964       0.33843265       0.53772650 </v>
   <v>       0.31090543       0.58203995       0.58986082 </v>
   <v>       0.48940425       0.59322600       0.65566939 </v>
   <v>       0.45232780       0.66095220       0.56698781 </v>
   <v>       0.49466171       0.54251923       0.45743250 </v>
   <v>       0.58428890       0.44649111       0.61301121 </v>
   <v>       0.67702388       0.62953911       0.51595691 </v>
   <v>       0.61759139       0.35245306       0.42790015 </v>
  </varray>
 </structure>
</modeling>
