unknown system                          
           1
    15.000000    0.000000    0.000000
     0.000000   15.000000    0.000000
     0.000000    0.000000   15.000000
   C    H    N 
     8     8     2
Direct configuration=     1
   0.37344647  0.54385853  0.58390323
   0.36942126  0.45483801  0.57748631
   0.45155380  0.39863766  0.57782272
   0.46226139  0.58824290  0.59111311
   0.52540541  0.54407153  0.52317105
   0.53939714  0.44790914  0.55596028
   0.60749115  0.59509401  0.51671263
   0.58980766  0.39122011  0.49552078
   0.30612199  0.41949676  0.57066757
   0.46209800  0.36709700  0.64289826
   0.44243700  0.34293661  0.53258799
   0.31343902  0.58490464  0.58348565
   0.49376354  0.57837335  0.65645603
   0.45751155  0.66003145  0.58186429
   0.49679288  0.54339922  0.45609794
   0.57873626  0.45343162  0.61710829
   0.66708009  0.64484081  0.51743172
   0.61836456  0.33741681  0.44739247
Direct configuration=     2
   0.37328626  0.54363202  0.58408415
   0.36937995  0.45497167  0.57749677
   0.45140130  0.39861934  0.57806283
   0.46221853  0.58826586  0.59101009
   0.52553567  0.54412282  0.52307763
   0.53972390  0.44783282  0.55583223
   0.60742404  0.59511570  0.51684619
   0.58950239  0.39123531  0.49530497
   0.30612280  0.41950665  0.57056716
   0.46204544  0.36730809  0.64321626
   0.44245415  0.34264262  0.53263525
   0.31341172  0.58488965  0.58341785
   0.49370862  0.57831596  0.65666514
   0.45754519  0.66018953  0.58180620
   0.49651737  0.54343721  0.45598443
   0.57893441  0.45340539  0.61713573
   0.66734754  0.64487743  0.51732596
   0.61836737  0.33731819  0.44703215
Direct configuration=     3
   0.37318940  0.54363297  0.58424801
   0.36931600  0.45490898  0.57750374
   0.45132059  0.39856626  0.57820125
   0.46218507  0.58827357  0.59098970
   0.52557960  0.54413762  0.52297946
   0.53990864  0.44779847  0.55578822
   0.60762977  0.59535532  0.51695317
   0.58938928  0.39098865  0.49487239
   0.30612522  0.41952730  0.57047861
   0.46198457  0.36749573  0.64352675
   0.44246855  0.34242469  0.53272620
   0.31337966  0.58486506  0.58335946
   0.49362533  0.57828224  0.65679796
   0.45757113  0.66031152  0.58174329
   0.49628242  0.54347110  0.45591278
   0.57913068  0.45337540  0.61715009
   0.66738806  0.64472818  0.51722845
   0.61826623  0.33743837  0.44687640
Direct configuration=     4
   0.37306145  0.54359168  0.58450261
   0.36923230  0.45486234  0.57752626
   0.45123242  0.39845773  0.57840503
   0.46214223  0.58830209  0.59097989
   0.52568296  0.54418703  0.52282766
   0.54019460  0.44770484  0.55568395
   0.60754950  0.59541905  0.51711844
   0.58898549  0.39097943  0.49452925
   0.30609876  0.41954902  0.57033128
   0.46187245  0.36780458  0.64403552
   0.44249367  0.34208738  0.53290299
   0.31330307  0.58483501  0.58326746
   0.49347143  0.57823987  0.65698875
   0.45761418  0.66048552  0.58163563
   0.49590883  0.54352970  0.45581409
   0.57946508  0.45331632  0.61715561
   0.66782219  0.64477345  0.51707097
   0.61830000  0.33728232  0.44628643
Direct configuration=     5
   0.37285061  0.54346136  0.58505084
   0.36909869  0.45483108  0.57760956
   0.45113292  0.39814721  0.57882693
   0.46205477  0.58841518  0.59103724
   0.52579119  0.54426341  0.52253142
   0.54066390  0.44752344  0.55553843
   0.60780450  0.59592943  0.51744609
   0.58834944  0.39052217  0.49335050
   0.30595601  0.41957944  0.56999158
   0.46156338  0.36851366  0.64520830
   0.44255058  0.34135917  0.53338223
   0.31306596  0.58477891  0.58307269
   0.49305854  0.57819653  0.65734878
   0.45771249  0.66080969  0.58135941
   0.49507384  0.54366772  0.45565401
   0.58027397  0.45315276  0.61710913
   0.66849227  0.64454885  0.51670957
   0.61821335  0.33730012  0.44519394
Direct configuration=     6
   0.37288846  0.54350570  0.58500672
   0.36912588  0.45481161  0.57761795
   0.45118332  0.39814762  0.57880321
   0.46206189  0.58842510  0.59106026
   0.52575291  0.54426618  0.52258754
   0.54057754  0.44751488  0.55555596
   0.60778293  0.59590505  0.51739995
   0.58840154  0.39054848  0.49341633
   0.30593380  0.41958248  0.57001059
   0.46154169  0.36847756  0.64514988
   0.44254471  0.34140997  0.53339534
   0.31305898  0.58477281  0.58309497
   0.49304710  0.57823628  0.65730023
   0.45770463  0.66075780  0.58135068
   0.49512691  0.54366580  0.45570400
   0.58026014  0.45313944  0.61706663
   0.66849254  0.64454237  0.51672584
   0.61824643  0.33730506  0.44519667
Direct configuration=     7
   0.37289356  0.54350237  0.58504626
   0.36914546  0.45481286  0.57765642
   0.45122773  0.39809193  0.57888076
   0.46204187  0.58846713  0.59108654
   0.52571419  0.54429483  0.52264058
   0.54055402  0.44744697  0.55554779
   0.60782731  0.59599604  0.51738576
   0.58838521  0.39043475  0.49320657
   0.30586882  0.41961038  0.56997506
   0.46141209  0.36856703  0.64532084
   0.44254571  0.34131995  0.53353375
   0.31299059  0.58473959  0.58309957
   0.49292738  0.57832239  0.65731978
   0.45770963  0.66074776  0.58125228
   0.49502485  0.54369893  0.45578058
   0.58042992  0.45306192  0.61695015
   0.66863066  0.64443412  0.51666835
   0.61827339  0.33739269  0.44497745
Direct configuration=     8
   0.37287047  0.54349723  0.58514249
   0.36915247  0.45479736  0.57771857
   0.45126986  0.39799397  0.57903807
   0.46199768  0.58853161  0.59111979
   0.52568659  0.54434659  0.52270489
   0.54058360  0.44731288  0.55549600
   0.60783391  0.59610348  0.51738610
   0.58823924  0.39036629  0.49292419
   0.30577519  0.41967098  0.56990520
   0.46118152  0.36874402  0.64566977
   0.44254882  0.34112499  0.53378168
   0.31287656  0.58467174  0.58309954
   0.49271324  0.57846884  0.65739023
   0.45771953  0.66076763  0.58106756
   0.49480912  0.54376241  0.45589976
   0.58075566  0.45292010  0.61675528
   0.66895443  0.64428583  0.51655060
   0.61838235  0.33743393  0.44445555
Direct configuration=     9
   0.37288347  0.54354436  0.58509367
   0.36917269  0.45476604  0.57774479
   0.45130049  0.39799071  0.57907421
   0.46197282  0.58854972  0.59112838
   0.52565018  0.54435876  0.52282299
   0.54051671  0.44725589  0.55548510
   0.60784035  0.59610860  0.51731185
   0.58832299  0.39033528  0.49288028
   0.30575005  0.41972981  0.56993836
   0.46105577  0.36871066  0.64568705
   0.44253388  0.34113013  0.53387244
   0.31284594  0.58461577  0.58315277
   0.49263126  0.57861985  0.65738105
   0.45769782  0.66072561  0.58096226
   0.49482425  0.54378410  0.45604602
   0.58084295  0.45283078  0.61660197
   0.66900969  0.64415296  0.51653355
   0.61845949  0.33756868  0.44435362
Direct configuration=    10
   0.37286298  0.54352477  0.58508888
   0.36917154  0.45477939  0.57776952
   0.45128360  0.39797140  0.57914006
   0.46193557  0.58857169  0.59112439
   0.52566476  0.54436283  0.52289335
   0.54054077  0.44719090  0.55544137
   0.60778988  0.59607211  0.51728423
   0.58829204  0.39038083  0.49283653
   0.30573103  0.41979388  0.56995936
   0.46091827  0.36871273  0.64579044
   0.44251931  0.34107402  0.53397961
   0.31280068  0.58455728  0.58319472
   0.49253091  0.57877458  0.65742936
   0.45767634  0.66073649  0.58082761
   0.49477170  0.54381488  0.45616882
   0.58098609  0.45272512  0.61646546
   0.66916583  0.64404519  0.51648409
   0.61858301  0.33764099  0.44411600
Direct configuration=    11
   0.37285877  0.54352340  0.58505901
   0.36917280  0.45478574  0.57777279
   0.45126549  0.39797961  0.57914966
   0.46191832  0.58857673  0.59111701
   0.52566760  0.54434559  0.52293864
   0.54053351  0.44718046  0.55543627
   0.60783246  0.59607396  0.51725923
   0.58836287  0.39034871  0.49278958
   0.30573454  0.41982870  0.56999824
   0.46086432  0.36866548  0.64577878
   0.44250437  0.34108274  0.53400283
   0.31279019  0.58452739  0.58323166
   0.49250110  0.57886998  0.65744619
   0.45765363  0.66073474  0.58076135
   0.49478666  0.54382224  0.45623906
   0.58101925  0.45267297  0.61640586
   0.66913857  0.64393652  0.51647491
   0.61861651  0.33777221  0.44412973
Direct configuration=    12
   0.37283216  0.54352830  0.58507950
   0.36916242  0.45477469  0.57778840
   0.45123895  0.39795332  0.57921738
   0.46188412  0.58860364  0.59111569
   0.52568925  0.54433611  0.52298420
   0.54057449  0.44712306  0.55540235
   0.60782677  0.59605327  0.51725999
   0.58833021  0.39035893  0.49267259
   0.30571464  0.41988803  0.57002213
   0.46073268  0.36867831  0.64590364
   0.44248467  0.34100771  0.53410499
   0.31273956  0.58446997  0.58327050
   0.49239359  0.57903000  0.65751314
   0.45762593  0.66076420  0.58061204
   0.49470718  0.54385141  0.45633533
   0.58118070  0.45256129  0.61629971
   0.66927844  0.64379938  0.51641180
   0.61872666  0.33789014  0.44391020
Direct configuration=    13
   0.37281434  0.54352073  0.58510797
   0.36915647  0.45478044  0.57779936
   0.45122314  0.39792365  0.57926926
   0.46186259  0.58863292  0.59111845
   0.52570078  0.54432397  0.52300953
   0.54060670  0.44707960  0.55538506
   0.60785226  0.59604972  0.51727510
   0.58829634  0.39035782  0.49255331
   0.30569018  0.41992385  0.57003933
   0.46063693  0.36869846  0.64600841
   0.44246746  0.34094065  0.53418212
   0.31269292  0.58443212  0.58329744
   0.49230638  0.57915410  0.65756948
   0.45760259  0.66079110  0.58049107
   0.49463257  0.54387161  0.45639194
   0.58131331  0.45247274  0.61623560
   0.66937578  0.64367924  0.51635627
   0.61880863  0.33799235  0.44374032
Direct configuration=    14
   0.37279689  0.54352474  0.58514591
   0.36914991  0.45477591  0.57781013
   0.45121284  0.39788905  0.57932259
   0.46184358  0.58866497  0.59112343
   0.52570752  0.54431613  0.52303220
   0.54063572  0.44703433  0.55537496
   0.60787128  0.59603814  0.51729715
   0.58826284  0.39033899  0.49240627
   0.30566231  0.41995508  0.57005311
   0.46054457  0.36872983  0.64612048
   0.44244998  0.34086694  0.53426061
   0.31264509  0.58439631  0.58332152
   0.49221596  0.57927637  0.65762574
   0.45757943  0.66081861  0.58036819
   0.49455028  0.54389031  0.45643891
   0.58144992  0.45238388  0.61617930
   0.66949020  0.64356830  0.51629662
   0.61888139  0.33810677  0.44357351
Direct configuration=    15
   0.37277084  0.54352836  0.58520129
   0.36914141  0.45477372  0.57782829
   0.45119811  0.39783515  0.57940531
   0.46181194  0.58871855  0.59113032
   0.52571553  0.54430188  0.52307748
   0.54068044  0.44695289  0.55535453
   0.60789803  0.59600516  0.51732927
   0.58818230  0.39037221  0.49222869
   0.30561723  0.42000661  0.57008306
   0.46039407  0.36877225  0.64629021
   0.44241891  0.34075375  0.53438644
   0.31256784  0.58433726  0.58336671
   0.49206912  0.57948787  0.65771488
   0.45753757  0.66085931  0.58016199
   0.49442584  0.54391874  0.45652195
   0.58166732  0.45223369  0.61608420
   0.66967607  0.64338254  0.51620067
   0.61903617  0.33825545  0.44326054
Direct configuration=    16
   0.37275839  0.54352709  0.58522663
   0.36913873  0.45477599  0.57783975
   0.45119074  0.39780759  0.57944771
   0.46179353  0.58874697  0.59113343
   0.52571258  0.54429404  0.52310750
   0.54069491  0.44691359  0.55535038
   0.60794385  0.59600892  0.51734124
   0.58817626  0.39034159  0.49209255
   0.30559402  0.42003401  0.57010078
   0.46031496  0.36879188  0.64637350
   0.44240220  0.34069769  0.53445269
   0.31252833  0.58430612  0.58339305
   0.49199248  0.57960364  0.65775841
   0.45751465  0.66087726  0.58005216
   0.49436638  0.54393237  0.45657076
   0.58177709  0.45215328  0.61603042
   0.66974430  0.64326048  0.51615223
   0.61909331  0.33838236  0.44313888
Direct configuration=    17
   0.37274032  0.54352891  0.58526705
   0.36913479  0.45477654  0.57785682
   0.45118252  0.39776576  0.57950909
   0.46176712  0.58879101  0.59113810
   0.52571131  0.54428540  0.52315326
   0.54071856  0.44684762  0.55534034
   0.60796388  0.59597069  0.51736337
   0.58812849  0.39035886  0.49194392
   0.30555892  0.42007247  0.57012911
   0.46020032  0.36882319  0.64649559
   0.44237589  0.34061356  0.53455056
   0.31246971  0.58426092  0.58343361
   0.49187760  0.57978096  0.65782262
   0.45747825  0.66090352  0.57988475
   0.49427860  0.54395070  0.45664068
   0.58193926  0.45203055  0.61595413
   0.66989098  0.64310861  0.51607749
   0.61921183  0.33852469  0.44290562
Direct configuration=    18
   0.37271962  0.54353316  0.58531003
   0.36913182  0.45477553  0.57788036
   0.45117194  0.39771822  0.57957974
   0.46173070  0.58884563  0.59114188
   0.52570295  0.54427242  0.52322248
   0.54073635  0.44676541  0.55533114
   0.60800993  0.59592517  0.51738441
   0.58808856  0.39037733  0.49176001
   0.30551948  0.42012058  0.57017279
   0.46006185  0.36885377  0.64663003
   0.44234036  0.34051759  0.53466933
   0.31240147  0.58420442  0.58349210
   0.49173740  0.58001707  0.65789593
   0.45742740  0.66093027  0.57966997
   0.49418561  0.54396876  0.45673746
   0.58212716  0.45187180  0.61585517
   0.67004833  0.64289422  0.51598759
   0.61935894  0.33873037  0.44263196
Direct configuration=    19
   0.37270154  0.54353450  0.58534510
   0.36913023  0.45477696  0.57790287
   0.45116043  0.39767740  0.57963996
   0.46169581  0.58889542  0.59114355
   0.52569646  0.54425884  0.52329119
   0.54074634  0.44669334  0.55532491
   0.60803846  0.59586391  0.51740185
   0.58806697  0.39038831  0.49158782
   0.30548652  0.42016359  0.57021854
   0.45994008  0.36887598  0.64674156
   0.44230597  0.34043529  0.53477469
   0.31234198  0.58415363  0.58355077
   0.49161217  0.58024267  0.65795941
   0.45737668  0.66095230  0.57946955
   0.49411136  0.54398171  0.45683073
   0.58228818  0.45172295  0.61576447
   0.67019779  0.64269921  0.51590679
   0.61948999  0.33894219  0.44239861
Direct configuration=    20
   0.37267611  0.54353705  0.58539234
   0.36912799  0.45477796  0.57793512
   0.45114354  0.39762188  0.57972281
   0.46164528  0.58896571  0.59114487
   0.52568748  0.54423645  0.52339168
   0.54076107  0.44658750  0.55531099
   0.60808234  0.59577444  0.51742518
   0.58801379  0.39044984  0.49138901
   0.30544196  0.42022452  0.57028700
   0.45976983  0.36890402  0.64689370
   0.44225600  0.34032165  0.53492272
   0.31225946  0.58408162  0.58363719
   0.49143619  0.58056867  0.65804759
   0.45730202  0.66098232  0.57918274
   0.49401218  0.54399820  0.45696630
   0.58251051  0.45150928  0.61563497
   0.67040340  0.64241486  0.51579313
   0.61969995  0.33921348  0.44203527
Direct configuration=    21
   0.37266674  0.54353799  0.58540641
   0.36912818  0.45477851  0.57794956
   0.45113359  0.39760310  0.57975050
   0.46162199  0.58899494  0.59114292
   0.52568137  0.54422090  0.52344154
   0.54075664  0.44654898  0.55531077
   0.60812068  0.59573681  0.51743211
   0.58802343  0.39045278  0.49128546
   0.30542839  0.42024803  0.57032494
   0.45970739  0.36890696  0.64693950
   0.44223186  0.34028256  0.53497859
   0.31222984  0.58405300  0.58368158
   0.49136777  0.58071997  0.65807875
   0.45726362  0.66099129  0.57905665
   0.49398724  0.54399903  0.45702918
   0.58258508  0.45141482  0.61558237
   0.67046279  0.64226977  0.51574850
   0.61977391  0.33937707  0.44192143
Direct configuration=    22
   0.37264120  0.54354029  0.58545107
   0.36912652  0.45478010  0.57798425
   0.45111305  0.39754917  0.57983024
   0.46156755  0.58906872  0.59114105
   0.52567453  0.54419214  0.52355414
   0.54076407  0.44644151  0.55529830
   0.60815186  0.59561539  0.51745628
   0.58798058  0.39052396  0.49108323
   0.30538658  0.42030917  0.57040706
   0.45953865  0.36892773  0.64708147
   0.44217570  0.34017130  0.53512783
   0.31214789  0.58397920  0.58378131
   0.49118836  0.58107913  0.65816595
   0.45717687  0.66101970  0.57874785
   0.49390004  0.54400969  0.45717692
   0.58279916  0.45118425  0.61544931
   0.67068293  0.64196542  0.51563068
   0.61999605  0.33969027  0.44155312
Direct configuration=    23
   0.37261933  0.54354161  0.58548598
   0.36912626  0.45478280  0.57801874
   0.45108950  0.39750439  0.57989415
   0.46151333  0.58913984  0.59113430
   0.52566613  0.54415351  0.52367307
   0.54075704  0.44634411  0.55529139
   0.60820200  0.59548637  0.51747758
   0.58796370  0.39059924  0.49089635
   0.30535445  0.42036182  0.57050222
   0.45939535  0.36893398  0.64718743
   0.44211598  0.34007831  0.53525987
   0.31207745  0.58391219  0.58389126
   0.49102625  0.58144951  0.65823929
   0.45708013  0.66104083  0.57844067
   0.49384470  0.54400815  0.45732563
   0.58297051  0.45095408  0.61532807
   0.67086169  0.64163717  0.51552186
   0.62020710  0.34004010  0.44122760
Direct configuration=    24
   0.37260756  0.54354283  0.58550526
   0.36912634  0.45478455  0.57804055
   0.45107322  0.39748000  0.57992583
   0.46148024  0.58918403  0.59112646
   0.52566127  0.54412437  0.52375073
   0.54074368  0.44628887  0.55529247
   0.60822801  0.59538542  0.51749293
   0.58797004  0.39064319  0.49077568
   0.30533865  0.42038826  0.57057106
   0.45932138  0.36893152  0.64723587
   0.44207544  0.34002794  0.53533371
   0.31203880  0.58387411  0.58396761
   0.49093312  0.58169327  0.65827804
   0.45701141  0.66105062  0.57824404
   0.49382668  0.54399883  0.45741738
   0.58305400  0.45080696  0.61526163
   0.67096996  0.64142394  0.51545613
   0.62032997  0.34029372  0.44104828
Direct configuration=    25
   0.37261053  0.54354251  0.58550104
   0.36912644  0.45478448  0.57803809
   0.45107462  0.39748596  0.57991558
   0.46148488  0.58917811  0.59112469
   0.52566108  0.54412362  0.52374291
   0.54074074  0.44629727  0.55529305
   0.60822905  0.59538949  0.51749218
   0.58796369  0.39066150  0.49081468
   0.30534380  0.42037983  0.57056900
   0.45934278  0.36892759  0.64721678
   0.44207843  0.34003999  0.53531796
   0.31204780  0.58388196  0.58396319
   0.49095138  0.58167045  0.65826772
   0.45701427  0.66104686  0.57826613
   0.49384103  0.54399375  0.45740416
   0.58302591  0.45082356  0.61527727
   0.67094678  0.64144091  0.51546661
   0.62032163  0.34026306  0.44106595
Direct configuration=    26
   0.37260811  0.54354287  0.58550569
   0.36912653  0.45478522  0.57804416
   0.45107008  0.39748104  0.57992040
   0.46147643  0.58918961  0.59112108
   0.52565968  0.54411397  0.52376459
   0.54073370  0.44628408  0.55529528
   0.60823230  0.59535314  0.51749765
   0.58796682  0.39067925  0.49078830
   0.30534124  0.42038347  0.57059114
   0.45933097  0.36892504  0.64722241
   0.44206649  0.34003000  0.53533331
   0.31203999  0.58387422  0.58398629
   0.49093094  0.58173894  0.65827481
   0.45699272  0.66104844  0.57821290
   0.49384298  0.54398748  0.45742643
   0.58303693  0.45078424  0.61526530
   0.67097626  0.64138228  0.51545013
   0.62035399  0.34033708  0.44102057
Direct configuration=    27
   0.37259437  0.54354238  0.58554347
   0.36912438  0.45478663  0.57809884
   0.45102616  0.39744920  0.57993291
   0.46140951  0.58927887  0.59107125
   0.52563688  0.54401438  0.52393823
   0.54064931  0.44619536  0.55532293
   0.60833078  0.59505119  0.51755195
   0.58799516  0.39087470  0.49061356
   0.30533360  0.42038345  0.57080323
   0.45929599  0.36889231  0.64721657
   0.44195985  0.33996591  0.53543104
   0.31199421  0.58382369  0.58419837
   0.49079521  0.58233416  0.65830856
   0.45678826  0.66105008  0.57775765
   0.49391131  0.54390235  0.45759298
   0.58304968  0.45045149  0.61521019
   0.67114553  0.64083603  0.51532645
   0.62060378  0.34100827  0.44067640
Direct configuration=    28
   0.37259480  0.54354103  0.58554170
   0.36912388  0.45478572  0.57809183
   0.45103475  0.39745092  0.57993584
   0.46142017  0.58926701  0.59108021
   0.52564615  0.54403709  0.52390893
   0.54067048  0.44620005  0.55531254
   0.60826692  0.59506863  0.51754693
   0.58794524  0.39089648  0.49068833
   0.30533219  0.42038369  0.57076770
   0.45929791  0.36890390  0.64722880
   0.44197775  0.33996971  0.53542096
   0.31199890  0.58383026  0.58416263
   0.49081293  0.58223813  0.65830497
   0.45682190  0.66105208  0.57782676
   0.49389209  0.54391745  0.45756272
   0.58305696  0.45050320  0.61521797
   0.67117026  0.64095351  0.51534170
   0.62059481  0.34084952  0.44066654
Direct configuration=    29
   0.37259192  0.54354027  0.58555067
   0.36912312  0.45478541  0.57810249
   0.45102719  0.39744382  0.57993926
   0.46140853  0.58928337  0.59107188
   0.52563982  0.54402082  0.52393767
   0.54065395  0.44618602  0.55532238
   0.60829729  0.59502669  0.51755730
   0.58796191  0.39090679  0.49063196
   0.30533023  0.42038165  0.57080451
   0.45929480  0.36890142  0.64723086
   0.44195984  0.33995672  0.53543783
   0.31199113  0.58382240  0.58419858
   0.49079064  0.58233903  0.65830958
   0.45678646  0.66105342  0.57774756
   0.49390218  0.54390156  0.45758679
   0.58305781  0.45044713  0.61521247
   0.67119174  0.64085015  0.51532014
   0.62062192  0.34098616  0.44062067
Direct configuration=    30
   0.37258904  0.54353929  0.58556010
   0.36912180  0.45478346  0.57811146
   0.45102233  0.39743698  0.57994458
   0.46139985  0.58929536  0.59106619
   0.52563558  0.54401174  0.52395422
   0.54064646  0.44617307  0.55532645
   0.60831689  0.59499882  0.51756561
   0.58795535  0.39093175  0.49060645
   0.30532757  0.42037940  0.57082883
   0.45929221  0.36890396  0.64723909
   0.44194857  0.33994414  0.53545223
   0.31198478  0.58381634  0.58422181
   0.49077431  0.58240590  0.65831299
   0.45676283  0.66105543  0.57769191
   0.49390469  0.54389068  0.45759987
   0.58306234  0.45040924  0.61520999
   0.67121417  0.64078111  0.51530436
   0.62064704  0.34106230  0.44056465
Direct configuration=    31
   0.37258564  0.54353795  0.58557060
   0.36912024  0.45478185  0.57812189
   0.45101699  0.39742939  0.57995055
   0.46139013  0.58930917  0.59105938
   0.52563341  0.54400229  0.52397376
   0.54063796  0.44615835  0.55533031
   0.60831661  0.59495016  0.51757582
   0.58794505  0.39096560  0.49058299
   0.30532460  0.42037699  0.57085710
   0.45928918  0.36890652  0.64724810
   0.44193544  0.33993002  0.53546887
   0.31197741  0.58380949  0.58424886
   0.49075561  0.58248342  0.65831679
   0.45673538  0.66105779  0.57762790
   0.49390832  0.54387832  0.45761565
   0.58306696  0.45036551  0.61520659
   0.67125913  0.64071549  0.51528560
   0.62067967  0.34114485  0.44049513
Direct configuration=    32
   0.37252036  0.54351000  0.58577370
   0.36908994  0.45475044  0.57832669
   0.45091185  0.39728168  0.58006846
   0.46120005  0.58957511  0.59092586
   0.52556387  0.54380135  0.52435111
   0.54046369  0.44588605  0.55541536
   0.60854886  0.59418385  0.51776181
   0.58782373  0.39149654  0.49001032
   0.30526561  0.42033008  0.57140525
   0.45922960  0.36895696  0.64742557
   0.44168133  0.33965504  0.53579353
   0.31183315  0.58367643  0.58477269
   0.49039341  0.58398381  0.65838751
   0.45620283  0.66110379  0.57638729
   0.49397906  0.54363881  0.45792450
   0.58315442  0.44952098  0.61513873
   0.67193175  0.63930188  0.51493172
   0.62123592  0.34284208  0.43925036
Direct configuration=    33
   0.37253240  0.54351490  0.58573597
   0.36909509  0.45475305  0.57829009
   0.45093295  0.39730839  0.58005057
   0.46123807  0.58952257  0.59095278
   0.52557701  0.54384434  0.52427032
   0.54050265  0.44594001  0.55539628
   0.60852746  0.59436699  0.51772105
   0.58785225  0.39136826  0.49010586
   0.30527620  0.42033928  0.57129382
   0.45924051  0.36895212  0.64740147
   0.44173520  0.33970605  0.53573468
   0.31186101  0.58370145  0.58466426
   0.49046604  0.58367404  0.65836729
   0.45631223  0.66109335  0.57663896
   0.49396117  0.54368846  0.45785990
   0.58313966  0.44969663  0.61515036
   0.67177947  0.63956860  0.51500545
   0.62110042  0.34251280  0.43950018
Direct configuration=    34
   0.37252325  0.54351019  0.58576437
   0.36909069  0.45474746  0.57831985
   0.45091945  0.39728731  0.58006961
   0.46121306  0.58955735  0.59093443
   0.52557103  0.54382123  0.52431736
   0.54048309  0.44590212  0.55540424
   0.60853890  0.59425911  0.51774495
   0.58782450  0.39144653  0.49004074
   0.30526761  0.42033299  0.57136551
   0.45923198  0.36896169  0.64743161
   0.44170332  0.33966730  0.53578138
   0.31184125  0.58368288  0.58473156
   0.49041864  0.58386695  0.65837358
   0.45624338  0.66109923  0.57647678
   0.49396877  0.54365798  0.45789927
   0.58315287  0.44958885  0.61513999
   0.67188762  0.63939202  0.51495906
   0.62117224  0.34272618  0.43931585
Direct configuration=    35
   0.37252087  0.54350746  0.58577251
   0.36908935  0.45474431  0.57833017
   0.45091750  0.39728094  0.58007896
   0.46120765  0.58956361  0.59092902
   0.52557009  0.54381908  0.52432227
   0.54048184  0.44589502  0.55540417
   0.60854962  0.59425328  0.51774706
   0.58781955  0.39144819  0.49001553
   0.30526440  0.42033135  0.57137923
   0.45922917  0.36896781  0.64744765
   0.44169928  0.33965553  0.53579659
   0.31183607  0.58367735  0.58474251
   0.49040965  0.58389846  0.65837012
   0.45623140  0.66110004  0.57644590
   0.49396737  0.54365334  0.45790473
   0.58315810  0.44957273  0.61513592
   0.67190699  0.63935095  0.51495213
   0.62116783  0.34277391  0.43927358
Direct configuration=    36
   0.37250441  0.54349499  0.58582579
   0.36908045  0.45472781  0.57839312
   0.45089913  0.39724085  0.58012829
   0.46116596  0.58961649  0.59089195
   0.52556074  0.54378875  0.52438207
   0.54045932  0.44583552  0.55541004
   0.60859197  0.59412746  0.51777579
   0.58776449  0.39154815  0.48989063
   0.30524607  0.42032015  0.57149367
   0.45921199  0.36899573  0.64752803
   0.44165565  0.33957999  0.53589134
   0.31180080  0.58364047  0.58484300
   0.49033613  0.58418578  0.65836446
   0.45612620  0.66110776  0.57618942
   0.49397081  0.54360921  0.45795906
   0.58318832  0.44941797  0.61511191
   0.67207560  0.63905115  0.51488590
   0.62123132  0.34311665  0.43894422
Direct configuration=    37
   0.37250506  0.54349416  0.58582368
   0.36908096  0.45472749  0.57839276
   0.45090104  0.39724207  0.58012939
   0.46116841  0.58961210  0.59089198
   0.52556253  0.54379315  0.52437503
   0.54046124  0.44584050  0.55541008
   0.60858201  0.59413687  0.51777215
   0.58777167  0.39152874  0.48988627
   0.30524603  0.42032073  0.57148742
   0.45921204  0.36899560  0.64752974
   0.44165993  0.33958225  0.53588987
   0.31180213  0.58364082  0.58483562
   0.49034180  0.58416303  0.65836085
   0.45613364  0.66110690  0.57620589
   0.49396898  0.54361314  0.45795311
   0.58318821  0.44943269  0.61511196
   0.67207547  0.63907322  0.51489205
   0.62121073  0.34310283  0.43896313
Direct configuration=    38
   0.37250240  0.54349180  0.58583204
   0.36907967  0.45472476  0.57840337
   0.45089794  0.39723554  0.58013758
   0.46116143  0.58962066  0.59088546
   0.52555949  0.54378740  0.52438516
   0.54045647  0.44583104  0.55541234
   0.60859935  0.59412275  0.51777608
   0.58776580  0.39154189  0.48986206
   0.30524286  0.42031902  0.57150738
   0.45920896  0.36899910  0.64754267
   0.44165252  0.33957014  0.53590559
   0.31179621  0.58363432  0.58485276
   0.49033003  0.58421079  0.65835937
   0.45611590  0.66110807  0.57616304
   0.49396980  0.54360585  0.45796172
   0.58319301  0.44940797  0.61510825
   0.67209539  0.63901637  0.51488208
   0.62121839  0.34316405  0.43891077
Direct configuration=    39
   0.37250041  0.54348991  0.58583832
   0.36907863  0.45472215  0.57841215
   0.45089629  0.39723077  0.58014472
   0.46115651  0.58962631  0.59087988
   0.52555928  0.54378457  0.52439062
   0.54045450  0.44582392  0.55541234
   0.60859641  0.59410448  0.51777882
   0.58775493  0.39155816  0.48985342
   0.30524034  0.42031785  0.57152207
   0.45920647  0.36900173  0.64755366
   0.44164783  0.33956100  0.53591796
   0.31179183  0.58362903  0.58486465
   0.49032233  0.58424295  0.65835695
   0.45610367  0.66110860  0.57613291
   0.49397009  0.54360112  0.45796665
   0.58319699  0.44939251  0.61510506
   0.67212335  0.63898563  0.51487565
   0.62122482  0.34319906  0.43886337
Direct configuration=    40
   0.37249614  0.54348576  0.58585169
   0.36907640  0.45471706  0.57843066
   0.45089231  0.39722061  0.58015939
   0.46114584  0.58963851  0.59086811
   0.52555616  0.54377673  0.52440306
   0.54044805  0.44581095  0.55541511
   0.60861239  0.59407978  0.51778403
   0.58774710  0.39157210  0.48981250
   0.30523484  0.42031522  0.57155407
   0.45920116  0.36900696  0.64757627
   0.44163726  0.33954157  0.53594399
   0.31178222  0.58361780  0.58489084
   0.49030543  0.58431349  0.65835225
   0.45607680  0.66110973  0.57606727
   0.49397091  0.54359055  0.45797777
   0.58320502  0.44935843  0.61509846
   0.67216441  0.63890661  0.51486212
   0.62122796  0.34329301  0.43878237
Direct configuration=    41
   0.37249078  0.54348002  0.58586842
   0.36907370  0.45471037  0.57845465
   0.45088726  0.39720739  0.58017851
   0.46113239  0.58965399  0.59085275
   0.52555261  0.54376775  0.52441805
   0.54044133  0.44579258  0.55541729
   0.60863168  0.59404776  0.51779004
   0.58772751  0.39160401  0.48977554
   0.30522778  0.42031196  0.57159534
   0.45919422  0.36901249  0.64760502
   0.44162418  0.33951752  0.53597704
   0.31177007  0.58360313  0.58492394
   0.49028486  0.58440115  0.65834504
   0.45604308  0.66111092  0.57598482
   0.49397200  0.54357739  0.45799073
   0.58321523  0.44931753  0.61509053
   0.67221767  0.63880632  0.51484615
   0.62123763  0.34340084  0.43866613
Direct configuration=    42
   0.37244674  0.54343524  0.58600658
   0.36905136  0.45465648  0.57864954
   0.45084472  0.39709960  0.58033251
   0.46102145  0.58978307  0.59072760
   0.52552763  0.54369352  0.52454586
   0.54038010  0.44564727  0.55544137
   0.60874700  0.59374512  0.51784537
   0.58760305  0.39182151  0.48941748
   0.30517057  0.42028482  0.57193585
   0.45913810  0.36905834  0.64783654
   0.44151376  0.33931950  0.53624628
   0.31167025  0.58348395  0.58519987
   0.49011181  0.58513611  0.65829078
   0.45576195  0.66112154  0.57529883
   0.49398280  0.54346672  0.45810206