   17   17 5000    1
  0.2149333E+03  0.1540225E-08  0.1540225E-08  0.1540225E-08  0.1000000E-15
  1.000000000000000E-004
  CAR 
 unknown system                          
     42      1     30
 
  0.0000000E+00  0.0000000E+00  0.0000000E+00  0.1000000E+01
      1        -22.371686   1.000000
      2        -20.102530   1.000000
      3        -19.896115   1.000000
      4        -18.065482   1.000000
      5        -16.002819   1.000000
      6        -15.401396   1.000000
      7        -13.004670   1.000000
      8        -12.903752   1.000000
      9        -12.140905   1.000000
     10        -11.447413   1.000000
     11        -10.812479   1.000000
     12        -10.181964   1.000000
     13         -9.759148   1.000000
     14         -9.213125   1.000000
     15         -8.712852   1.000000
     16         -8.492242   1.000000
     17         -8.338790   1.000000
     18         -8.146017   1.000000
     19         -7.968119   1.000000
     20         -6.827757   1.000000
     21         -5.884982   1.000000
     22         -2.374947   0.000000
     23         -2.222573   0.000000
     24         -0.685956   0.000000
     25         -0.237872   0.000000
     26         -0.090169   0.000000
     27          0.077412   0.000000
     28          0.301779   0.000000
     29          0.414959   0.000000
     30          0.498575   0.000000
