       N       E                     dE             d eps       ncg     rms          rms(c)
DAV:   1     0.328389750735E+03    0.32839E+03   -0.10179E+04    76   0.668E+02
DAV:   2     0.598579670317E+02   -0.26853E+03   -0.25622E+03    96   0.137E+02
DAV:   3    -0.941656152105E+02   -0.15402E+03   -0.15363E+03    80   0.108E+02
DAV:   4    -0.112302102440E+03   -0.18136E+02   -0.18103E+02    80   0.524E+01
DAV:   5    -0.112569350511E+03   -0.26725E+00   -0.26684E+00    80   0.777E+00    0.174E+01
RMM:   6    -0.103731200572E+03    0.88381E+01   -0.12575E+01    60   0.144E+01    0.939E+00
RMM:   7    -0.101678904648E+03    0.20523E+01   -0.11892E+01    60   0.137E+01    0.396E+00
RMM:   8    -0.101515081415E+03    0.16382E+00   -0.69918E-01    60   0.437E+00    0.236E+00
RMM:   9    -0.101424314066E+03    0.90767E-01   -0.46093E-01    60   0.296E+00    0.632E-01
RMM:  10    -0.101419214913E+03    0.50992E-02   -0.71142E-02    64   0.122E+00    0.302E-01
RMM:  11    -0.101426266349E+03   -0.70514E-02   -0.87093E-02    60   0.111E+00    0.350E-01
RMM:  12    -0.101423834585E+03    0.24318E-02   -0.79357E-03    61   0.475E-01    0.226E-01
RMM:  13    -0.101430863914E+03   -0.70293E-02   -0.13958E-02    60   0.464E-01    0.681E-02
RMM:  14    -0.101434868980E+03   -0.40051E-02   -0.32434E-03    62   0.237E-01    0.652E-02
RMM:  15    -0.101446064612E+03   -0.11196E-01   -0.21158E-03    60   0.171E-01    0.303E-02
RMM:  16    -0.101447806299E+03   -0.17417E-02   -0.81852E-04    62   0.858E-02    0.272E-02
RMM:  17    -0.101450554552E+03   -0.27483E-02   -0.50980E-04    61   0.789E-02    0.150E-02
RMM:  18    -0.101451558095E+03   -0.10035E-02   -0.20115E-04    55   0.443E-02    0.122E-02
RMM:  19    -0.101452085151E+03   -0.52706E-03   -0.10815E-04    55   0.322E-02    0.473E-03
RMM:  20    -0.101452309320E+03   -0.22417E-03   -0.32900E-05    48   0.178E-02    0.225E-03
RMM:  21    -0.101452418077E+03   -0.10876E-03   -0.10712E-05    39   0.109E-02    0.185E-03
RMM:  22    -0.101452467773E+03   -0.49695E-04   -0.34271E-06    36   0.701E-03    0.125E-03
RMM:  23    -0.101452480524E+03   -0.12751E-04   -0.87582E-07    28   0.428E-03    0.396E-04
RMM:  24    -0.101452493077E+03   -0.12553E-04   -0.53706E-07    26   0.395E-03    0.587E-04
RMM:  25    -0.101452495743E+03   -0.26658E-05   -0.54521E-08    19   0.309E-03
   1 F= -.10167976E+03 E0= -.10167976E+03  d E =-.101680E+03
       N       E                     dE             d eps       ncg     rms          rms(c)
DAV:   1    -0.101457761140E+03   -0.52681E-02   -0.75911E-01    72   0.461E+00    0.171E-01
RMM:   2    -0.101458640928E+03   -0.87979E-03   -0.12781E-02    62   0.554E-01    0.112E-01
RMM:   3    -0.101458682979E+03   -0.42051E-04   -0.17521E-03    61   0.238E-01    0.472E-02
RMM:   4    -0.101458725761E+03   -0.42782E-04   -0.49907E-04    63   0.121E-01    0.176E-02
RMM:   5    -0.101458740862E+03   -0.15100E-04   -0.13987E-04    59   0.524E-02    0.889E-03
RMM:   6    -0.101458743849E+03   -0.29876E-05   -0.15821E-05    41   0.203E-02
   2 F= -.10168591E+03 E0= -.10168591E+03  d E =-.615505E-02
       N       E                     dE             d eps       ncg     rms          rms(c)
DAV:   1    -0.101464522578E+03   -0.57817E-02   -0.15283E+00    66   0.648E+00    0.246E-01
RMM:   2    -0.101465784515E+03   -0.12619E-02   -0.21275E-02    60   0.745E-01    0.152E-01
RMM:   3    -0.101465905219E+03   -0.12070E-03   -0.34532E-03    61   0.326E-01    0.592E-02
RMM:   4    -0.101465997820E+03   -0.92602E-04   -0.88599E-04    64   0.153E-01    0.260E-02
RMM:   5    -0.101466008729E+03   -0.10909E-04   -0.11060E-04    52   0.593E-02    0.856E-03
RMM:   6    -0.101466013477E+03   -0.47482E-05   -0.30241E-05    44   0.295E-02
   3 F= -.10169306E+03 E0= -.10169306E+03  d E =-.714459E-02
       N       E                     dE             d eps       ncg     rms          rms(c)
DAV:   1    -0.101469461892E+03   -0.34532E-02   -0.57348E-01    66   0.396E+00    0.150E-01
RMM:   2    -0.101469933478E+03   -0.47159E-03   -0.79630E-03    60   0.456E-01    0.938E-02
RMM:   3    -0.101469986162E+03   -0.52684E-04   -0.13017E-03    61   0.200E-01    0.348E-02
RMM:   4    -0.101470019083E+03   -0.32921E-04   -0.30493E-04    59   0.927E-02    0.145E-02
RMM:   5    -0.101470026896E+03   -0.78130E-05   -0.52698E-05    48   0.371E-02
   4 F= -.10169699E+03 E0= -.10169699E+03  d E =-.393028E-02
       N       E                     dE             d eps       ncg     rms          rms(c)
DAV:   1    -0.101472829108E+03   -0.28100E-02   -0.41451E-01    60   0.335E+00    0.129E-01
RMM:   2    -0.101473183276E+03   -0.35417E-03   -0.58242E-03    60   0.388E-01    0.789E-02
RMM:   3    -0.101473229869E+03   -0.46593E-04   -0.93095E-04    61   0.169E-01    0.310E-02
RMM:   4    -0.101473255383E+03   -0.25514E-04   -0.23507E-04    57   0.795E-02    0.119E-02
RMM:   5    -0.101473260114E+03   -0.47313E-05   -0.35896E-05    46   0.342E-02
   5 F= -.10170016E+03 E0= -.10170016E+03  d E =-.316957E-02
       N       E                     dE             d eps       ncg     rms          rms(c)
DAV:   1    -0.101478411035E+03   -0.51557E-02   -0.22761E+00    60   0.783E+00    0.307E-01
RMM:   2    -0.101480392998E+03   -0.19820E-02   -0.31662E-02    60   0.902E-01    0.186E-01
RMM:   3    -0.101480606310E+03   -0.21331E-03   -0.50040E-03    61   0.391E-01    0.739E-02
RMM:   4    -0.101480733791E+03   -0.12748E-03   -0.12357E-03    63   0.183E-01    0.269E-02
RMM:   5    -0.101480752421E+03   -0.18630E-04   -0.18879E-04    55   0.787E-02    0.134E-02
RMM:   6    -0.101480760365E+03   -0.79439E-05   -0.47800E-05    49   0.356E-02
   6 F= -.10170750E+03 E0= -.10170750E+03  d E =-.734698E-02
       N       E                     dE             d eps       ncg     rms          rms(c)
DAV:   1    -0.101486306509E+03   -0.55541E-02   -0.70868E+00    60   0.138E+01    0.552E-01
RMM:   2    -0.101492781113E+03   -0.64746E-02   -0.99507E-02    60   0.159E+00    0.328E-01
RMM:   3    -0.101493309229E+03   -0.52812E-03   -0.15483E-02    61   0.688E-01    0.143E-01
RMM:   4    -0.101493662400E+03   -0.35317E-03   -0.37853E-03    63   0.326E-01    0.506E-02
RMM:   5    -0.101493736356E+03   -0.73956E-04   -0.68320E-04    62   0.131E-01    0.182E-02
RMM:   6    -0.101493758549E+03   -0.22192E-04   -0.14345E-04    55   0.612E-02    0.625E-03
RMM:   7    -0.101493769204E+03   -0.10655E-04   -0.36950E-05    45   0.282E-02    0.635E-03
RMM:   8    -0.101493779033E+03   -0.98290E-05   -0.44945E-06    39   0.110E-02
   7 F= -.10172024E+03 E0= -.10172024E+03  d E =-.127361E-01
       N       E                     dE             d eps       ncg     rms          rms(c)
DAV:   1    -0.101497840448E+03   -0.40712E-02   -0.10050E+00    60   0.517E+00    0.206E-01
RMM:   2    -0.101498693163E+03   -0.85271E-03   -0.13800E-02    60   0.593E-01    0.124E-01
RMM:   3    -0.101498793325E+03   -0.10016E-03   -0.21799E-03    61   0.257E-01    0.483E-02
RMM:   4    -0.101498851474E+03   -0.58149E-04   -0.50202E-04    58   0.120E-01    0.178E-02
RMM:   5    -0.101498865928E+03   -0.14454E-04   -0.10467E-04    53   0.535E-02    0.858E-03
RMM:   6    -0.101498872837E+03   -0.69099E-05   -0.19656E-05    42   0.236E-02
   8 F= -.10172522E+03 E0= -.10172522E+03  d E =-.497942E-02
       N       E                     dE             d eps       ncg     rms          rms(c)
DAV:   1    -0.101503848247E+03   -0.49823E-02   -0.18185E+00    60   0.694E+00    0.276E-01
RMM:   2    -0.101505405378E+03   -0.15571E-02   -0.25069E-02    60   0.796E-01    0.166E-01
RMM:   3    -0.101505569081E+03   -0.16370E-03   -0.39552E-03    61   0.346E-01    0.671E-02
RMM:   4    -0.101505677530E+03   -0.10845E-03   -0.10089E-03    64   0.162E-01    0.268E-02
RMM:   5    -0.101505691200E+03   -0.13671E-04   -0.12380E-04    51   0.624E-02    0.117E-02
RMM:   6    -0.101505699114E+03   -0.79137E-05   -0.38603E-05    49   0.318E-02
   9 F= -.10173189E+03 E0= -.10173189E+03  d E =-.666707E-02
       N       E                     dE             d eps       ncg     rms          rms(c)
DAV:   1    -0.101510071507E+03   -0.43803E-02   -0.25897E-01    60   0.264E+00    0.107E-01
RMM:   2    -0.101510243603E+03   -0.17210E-03   -0.33053E-03    60   0.299E-01    0.655E-02
RMM:   3    -0.101510266326E+03   -0.22723E-04   -0.56479E-04    60   0.134E-01    0.203E-02
RMM:   4    -0.101510283297E+03   -0.16971E-04   -0.11992E-04    55   0.612E-02    0.977E-03
RMM:   5    -0.101510287889E+03   -0.45921E-05   -0.19691E-05    42   0.250E-02
  10 F= -.10173639E+03 E0= -.10173639E+03  d E =-.450181E-02
       N       E                     dE             d eps       ncg     rms          rms(c)
DAV:   1    -0.101515914086E+03   -0.56308E-02   -0.56133E-01    60   0.387E+00    0.157E-01
RMM:   2    -0.101516311368E+03   -0.39728E-03   -0.73254E-03    60   0.442E-01    0.950E-02
RMM:   3    -0.101516354056E+03   -0.42688E-04   -0.12087E-03    60   0.195E-01    0.328E-02
RMM:   4    -0.101516387463E+03   -0.33407E-04   -0.27633E-04    60   0.907E-02    0.152E-02
RMM:   5    -0.101516393063E+03   -0.55997E-05   -0.43427E-05    47   0.367E-02
  11 F= -.10174237E+03 E0= -.10174237E+03  d E =-.597843E-02
       N       E                     dE             d eps       ncg     rms          rms(c)
DAV:   1    -0.101523528586E+03   -0.71411E-02   -0.67665E-01    60   0.432E+00    0.175E-01
RMM:   2    -0.101523961742E+03   -0.43316E-03   -0.85561E-03    60   0.489E-01    0.106E-01
RMM:   3    -0.101524008225E+03   -0.46483E-04   -0.14903E-03    60   0.220E-01    0.313E-02
RMM:   4    -0.101524046135E+03   -0.37910E-04   -0.30879E-04    62   0.100E-01    0.160E-02
RMM:   5    -0.101524052547E+03   -0.64112E-05   -0.52205E-05    48   0.417E-02
  12 F= -.10174986E+03 E0= -.10174986E+03  d E =-.749004E-02
       N       E                     dE             d eps       ncg     rms          rms(c)
DAV:   1    -0.101527871640E+03   -0.38255E-02   -0.15501E-01    60   0.210E+00    0.835E-02
RMM:   2    -0.101527965483E+03   -0.93842E-04   -0.19541E-03    60   0.239E-01    0.515E-02
RMM:   3    -0.101527979323E+03   -0.13840E-04   -0.36013E-04    60   0.109E-01    0.127E-02
RMM:   4    -0.101527988294E+03   -0.89708E-05   -0.66926E-05    52   0.490E-02
  13 F= -.10175370E+03 E0= -.10175370E+03  d E =-.383986E-02
       N       E                     dE             d eps       ncg     rms          rms(c)
DAV:   1    -0.101532513622E+03   -0.45343E-02   -0.25697E-01    60   0.269E+00    0.107E-01
RMM:   2    -0.101532677712E+03   -0.16409E-03   -0.32841E-03    60   0.306E-01    0.664E-02
RMM:   3    -0.101532702064E+03   -0.24352E-04   -0.57590E-04    60   0.138E-01    0.184E-02
RMM:   4    -0.101532716251E+03   -0.14186E-04   -0.11231E-04    55   0.622E-02    0.886E-03
RMM:   5    -0.101532719815E+03   -0.35647E-05   -0.25055E-05    43   0.293E-02
  14 F= -.10175831E+03 E0= -.10175831E+03  d E =-.460966E-02
       N       E                     dE             d eps       ncg     rms          rms(c)
DAV:   1    -0.101535548771E+03   -0.28325E-02   -0.65741E-02    60   0.141E+00    0.560E-02
RMM:   2    -0.101535583923E+03   -0.35152E-04   -0.80640E-04    60   0.159E-01    0.349E-02
RMM:   3    -0.101535589764E+03   -0.58404E-05   -0.16193E-04    60   0.743E-02    0.672E-03
RMM:   4    -0.101535593482E+03   -0.37179E-05   -0.27335E-05    43   0.325E-02
  15 F= -.10176110E+03 E0= -.10176110E+03  d E =-.279247E-02
       N       E                     dE             d eps       ncg     rms          rms(c)
DAV:   1    -0.101538700360E+03   -0.31106E-02   -0.89798E-02    60   0.164E+00    0.646E-02
RMM:   2    -0.101538752092E+03   -0.51732E-04   -0.11237E-03    60   0.186E-01    0.403E-02
RMM:   3    -0.101538760535E+03   -0.84424E-05   -0.21492E-04    60   0.857E-02    0.845E-03
RMM:   4    -0.101538765444E+03   -0.49092E-05   -0.39527E-05    46   0.378E-02
  16 F= -.10176418E+03 E0= -.10176418E+03  d E =-.308014E-02
       N       E                     dE             d eps       ncg     rms          rms(c)
DAV:   1    -0.101542054852E+03   -0.32943E-02   -0.84530E-02    60   0.163E+00    0.652E-02
RMM:   2    -0.101542100124E+03   -0.45272E-04   -0.10418E-03    60   0.183E-01    0.409E-02
RMM:   3    -0.101542110146E+03   -0.10021E-04   -0.21480E-04    60   0.859E-02    0.694E-03
RMM:   4    -0.101542114575E+03   -0.44294E-05   -0.38766E-05    46   0.376E-02
  17 F= -.10176742E+03 E0= -.10176742E+03  d E =-.324341E-02
       N       E                     dE             d eps       ncg     rms          rms(c)
DAV:   1    -0.101544473703E+03   -0.23636E-02   -0.41357E-02    72   0.115E+00    0.474E-02
RMM:   2    -0.101544495430E+03   -0.21727E-04   -0.51439E-04    60   0.130E-01    0.297E-02
RMM:   3    -0.101544501147E+03   -0.57176E-05   -0.11019E-04    60   0.613E-02    0.505E-03
RMM:   4    -0.101544503530E+03   -0.23828E-05   -0.19809E-05    41   0.270E-02
  18 F= -.10176973E+03 E0= -.10176973E+03  d E =-.230874E-02
       N       E                     dE             d eps       ncg     rms          rms(c)
DAV:   1    -0.101546893654E+03   -0.23925E-02   -0.43318E-02    60   0.118E+00    0.486E-02
RMM:   2    -0.101546915738E+03   -0.22083E-04   -0.52906E-04    60   0.132E-01    0.304E-02
RMM:   3    -0.101546921669E+03   -0.59314E-05   -0.11228E-04    60   0.619E-02    0.536E-03
RMM:   4    -0.101546924075E+03   -0.24055E-05   -0.20308E-05    41   0.273E-02
  19 F= -.10177207E+03 E0= -.10177207E+03  d E =-.233620E-02
       N       E                     dE             d eps       ncg     rms          rms(c)
DAV:   1    -0.101549593170E+03   -0.26715E-02   -0.57086E-02    60   0.136E+00    0.576E-02
RMM:   2    -0.101549620989E+03   -0.27819E-04   -0.69997E-04    60   0.153E-01    0.358E-02
RMM:   3    -0.101549628499E+03   -0.75098E-05   -0.14544E-04    60   0.705E-02    0.812E-03
RMM:   4    -0.101549632232E+03   -0.37328E-05   -0.31376E-05    46   0.319E-02
  20 F= -.10177467E+03 E0= -.10177467E+03  d E =-.260666E-02
       N       E                     dE             d eps       ncg     rms          rms(c)
DAV:   1    -0.101552148677E+03   -0.25202E-02   -0.51415E-02    60   0.129E+00    0.548E-02
RMM:   2    -0.101552172831E+03   -0.24154E-04   -0.62515E-04    60   0.144E-01    0.343E-02
RMM:   3    -0.101552179759E+03   -0.69274E-05   -0.13495E-04    60   0.677E-02    0.613E-03
RMM:   4    -0.101552182668E+03   -0.29099E-05   -0.25196E-05    43   0.299E-02
  21 F= -.10177713E+03 E0= -.10177713E+03  d E =-.245414E-02
       N       E                     dE             d eps       ncg     rms          rms(c)
DAV:   1    -0.101555101255E+03   -0.29215E-02   -0.75665E-02    60   0.157E+00    0.673E-02
RMM:   2    -0.101555137191E+03   -0.35936E-04   -0.90945E-04    60   0.175E-01    0.418E-02
RMM:   3    -0.101555147231E+03   -0.10040E-04   -0.19302E-04    60   0.807E-02    0.871E-03
RMM:   4    -0.101555151898E+03   -0.46669E-05   -0.40756E-05    46   0.362E-02
  22 F= -.10177998E+03 E0= -.10177998E+03  d E =-.284852E-02
       N       E                     dE             d eps       ncg     rms          rms(c)
DAV:   1    -0.101557793038E+03   -0.26458E-02   -0.67460E-02    60   0.148E+00    0.646E-02
RMM:   2    -0.101557823125E+03   -0.30087E-04   -0.79937E-04    60   0.164E-01    0.403E-02
RMM:   3    -0.101557832280E+03   -0.91555E-05   -0.17348E-04    60   0.761E-02    0.757E-03
RMM:   4    -0.101557836424E+03   -0.41440E-05   -0.36060E-05    46   0.338E-02
  23 F= -.10178255E+03 E0= -.10178255E+03  d E =-.257014E-02
       N       E                     dE             d eps       ncg     rms          rms(c)
DAV:   1    -0.101557850230E+03   -0.17949E-04   -0.78765E-04    72   0.157E-01    0.736E-03
RMM:   2    -0.101557851125E+03   -0.89504E-06   -0.13506E-05    40   0.204E-02
  24 F= -.10178256E+03 E0= -.10178256E+03  d E =-.112624E-04
       N       E                     dE             d eps       ncg     rms          rms(c)
DAV:   1    -0.101558370585E+03   -0.52036E-03   -0.34073E-03    66   0.336E-01    0.162E-02
RMM:   2    -0.101558371620E+03   -0.10346E-05   -0.38900E-05    48   0.367E-02
  25 F= -.10178305E+03 E0= -.10178305E+03  d E =-.496794E-03
       N       E                     dE             d eps       ncg     rms          rms(c)
DAV:   1    -0.101558939082E+03   -0.56850E-03   -0.47348E-03    66   0.402E-01    0.188E-02
RMM:   2    -0.101558940960E+03   -0.18784E-05   -0.55884E-05    53   0.435E-02
  26 F= -.10178360E+03 E0= -.10178360E+03  d E =-.541811E-03
       N       E                     dE             d eps       ncg     rms          rms(c)
DAV:   1    -0.101566965268E+03   -0.80262E-02   -0.10982E+00    60   0.604E+00    0.264E-01
RMM:   2    -0.101567413328E+03   -0.44806E-03   -0.12056E-02    60   0.643E-01    0.163E-01
RMM:   3    -0.101567492198E+03   -0.78870E-04   -0.25729E-03    60   0.292E-01    0.337E-02
RMM:   4    -0.101567554439E+03   -0.62242E-04   -0.58631E-04    66   0.130E-01    0.207E-02
RMM:   5    -0.101567559288E+03   -0.48485E-05   -0.96942E-05    59   0.578E-02
  27 F= -.10179178E+03 E0= -.10179178E+03  d E =-.818854E-02
       N       E                     dE             d eps       ncg     rms          rms(c)
DAV:   1    -0.101566923084E+03    0.63136E-03   -0.68590E-03    72   0.476E-01    0.200E-02
RMM:   2    -0.101566927534E+03   -0.44507E-05   -0.62536E-05    56   0.476E-02
  28 F= -.10179119E+03 E0= -.10179119E+03  d E =0.599064E-03
       N       E                     dE             d eps       ncg     rms          rms(c)
DAV:   1    -0.101567790728E+03   -0.86764E-03   -0.11449E-02    66   0.612E-01    0.252E-02
RMM:   2    -0.101567796216E+03   -0.54872E-05   -0.12268E-04    59   0.650E-02    0.152E-02
RMM:   3    -0.101567798586E+03   -0.23707E-05   -0.25178E-05    43   0.288E-02
  29 F= -.10179201E+03 E0= -.10179201E+03  d E =-.825625E-03
       N       E                     dE             d eps       ncg     rms          rms(c)
DAV:   1    -0.101568451861E+03   -0.65565E-03   -0.61879E-03    72   0.452E-01    0.205E-02
RMM:   2    -0.101568455093E+03   -0.32323E-05   -0.74535E-05    57   0.506E-02
  30 F= -.10179263E+03 E0= -.10179263E+03  d E =-.622216E-03
       N       E                     dE             d eps       ncg     rms          rms(c)
DAV:   1    -0.101570026792E+03   -0.15749E-02   -0.36615E-02    60   0.111E+00    0.494E-02
RMM:   2    -0.101570041434E+03   -0.14642E-04   -0.42132E-04    60   0.119E-01    0.308E-02
RMM:   3    -0.101570047045E+03   -0.56113E-05   -0.92110E-05    59   0.549E-02
  31 F= -.10179414E+03 E0= -.10179414E+03  d E =-.150724E-02
       N       E                     dE             d eps       ncg     rms          rms(c)
DAV:   1    -0.101575375826E+03   -0.53344E-02   -0.48062E-01    60   0.398E+00    0.174E-01
RMM:   2    -0.101575582256E+03   -0.20643E-03   -0.54240E-03    60   0.430E-01    0.108E-01
RMM:   3    -0.101575629895E+03   -0.47639E-04   -0.11589E-03    60   0.196E-01    0.217E-02
RMM:   4    -0.101575658200E+03   -0.28305E-04   -0.26474E-04    65   0.877E-02    0.135E-02
RMM:   5    -0.101575660921E+03   -0.27204E-05   -0.45526E-05    47   0.392E-02
  32 F= -.10179944E+03 E0= -.10179944E+03  d E =-.530330E-02
       N       E                     dE             d eps       ncg     rms          rms(c)
DAV:   1    -0.101576348499E+03   -0.69030E-03   -0.66945E-03    66   0.471E-01    0.217E-02
RMM:   2    -0.101576351420E+03   -0.29203E-05   -0.86069E-05    57   0.536E-02
  33 F= -.10180009E+03 E0= -.10180009E+03  d E =-.651096E-03
       N       E                     dE             d eps       ncg     rms          rms(c)
DAV:   1    -0.101576494913E+03   -0.14641E-03   -0.24235E-04    82   0.953E-02    0.683E-03
RMM:   2    -0.101576495622E+03   -0.70975E-06   -0.36990E-06    37   0.111E-02
  34 F= -.10180023E+03 E0= -.10180023E+03  d E =-.136201E-03
       N       E                     dE             d eps       ncg     rms          rms(c)
DAV:   1    -0.101577023360E+03   -0.52845E-03   -0.37935E-03    66   0.355E-01    0.158E-02
RMM:   2    -0.101577025393E+03   -0.20331E-05   -0.43772E-05    49   0.384E-02
  35 F= -.10180073E+03 E0= -.10180073E+03  d E =-.499564E-03
       N       E                     dE             d eps       ncg     rms          rms(c)
DAV:   1    -0.101580975630E+03   -0.39523E-02   -0.23754E-01    60   0.280E+00    0.123E-01
RMM:   2    -0.101581069617E+03   -0.93987E-04   -0.27318E-03    60   0.303E-01    0.761E-02
RMM:   3    -0.101581096740E+03   -0.27123E-04   -0.59548E-04    60   0.140E-01    0.163E-02
RMM:   4    -0.101581111289E+03   -0.14550E-04   -0.13395E-04    64   0.624E-02    0.105E-02
RMM:   5    -0.101581112309E+03   -0.10196E-05   -0.22270E-05    42   0.282E-02
  36 F= -.10180458E+03 E0= -.10180458E+03  d E =-.384725E-02
       N       E                     dE             d eps       ncg     rms          rms(c)
DAV:   1    -0.101583795741E+03   -0.26845E-02   -0.10850E-01    60   0.188E+00    0.834E-02
RMM:   2    -0.101583834042E+03   -0.38301E-04   -0.12390E-03    60   0.204E-01    0.511E-02
RMM:   3    -0.101583844902E+03   -0.10860E-04   -0.27597E-04    60   0.947E-02    0.101E-02
RMM:   4    -0.101583851501E+03   -0.65988E-05   -0.56331E-05    52   0.421E-02
  37 F= -.10180715E+03 E0= -.10180715E+03  d E =-.257420E-02
       N       E                     dE             d eps       ncg     rms          rms(c)
DAV:   1    -0.101582106813E+03    0.17381E-02   -0.45077E-02    60   0.122E+00    0.529E-02
RMM:   2    -0.101582121868E+03   -0.15054E-04   -0.48147E-04    60   0.128E-01    0.320E-02
RMM:   3    -0.101582127911E+03   -0.60429E-05   -0.10545E-04    59   0.584E-02    0.675E-03
RMM:   4    -0.101582130817E+03   -0.29062E-05   -0.19465E-05    41   0.259E-02
  38 F= -.10180554E+03 E0= -.10180554E+03  d E =0.161495E-02
       N       E                     dE             d eps       ncg     rms          rms(c)
DAV:   1    -0.101584288105E+03   -0.21602E-02   -0.69000E-02    66   0.150E+00    0.654E-02
RMM:   2    -0.101584311858E+03   -0.23752E-04   -0.75737E-04    60   0.160E-01    0.400E-02
RMM:   3    -0.101584318792E+03   -0.69342E-05   -0.16388E-04    60   0.732E-02    0.798E-03
RMM:   4    -0.101584322364E+03   -0.35717E-05   -0.31484E-05    47   0.325E-02
  39 F= -.10180759E+03 E0= -.10180759E+03  d E =-.205804E-02
       N       E                     dE             d eps       ncg     rms          rms(c)
DAV:   1    -0.101587070096E+03   -0.27513E-02   -0.11591E-01    60   0.195E+00    0.851E-02
RMM:   2    -0.101587118017E+03   -0.47921E-04   -0.13469E-03    60   0.212E-01    0.529E-02
RMM:   3    -0.101587132248E+03   -0.14231E-04   -0.29367E-04    60   0.979E-02    0.105E-02
RMM:   4    -0.101587138886E+03   -0.66377E-05   -0.61520E-05    52   0.434E-02
  40 F= -.10181023E+03 E0= -.10181023E+03  d E =-.263978E-02
       N       E                     dE             d eps       ncg     rms          rms(c)
DAV:   1    -0.101585654323E+03    0.14779E-02   -0.32959E-02    60   0.104E+00    0.447E-02
RMM:   2    -0.101585665489E+03   -0.11166E-04   -0.35612E-04    60   0.110E-01    0.269E-02
RMM:   3    -0.101585669589E+03   -0.41003E-05   -0.76531E-05    59   0.498E-02
  41 F= -.10180886E+03 E0= -.10180886E+03  d E =0.137537E-02
       N       E                     dE             d eps       ncg     rms          rms(c)
DAV:   1    -0.101587104593E+03   -0.14391E-02   -0.29760E-02    66   0.982E-01    0.427E-02
RMM:   2    -0.101587111902E+03   -0.73088E-05   -0.31395E-04    60   0.102E-01    0.257E-02
RMM:   3    -0.101587113711E+03   -0.18087E-05   -0.70106E-05    59   0.470E-02
  42 F= -.10181021E+03 E0= -.10181021E+03  d E =-.135336E-02
       N       E                     dE             d eps       ncg     rms          rms(c)
DAV:   1    -0.101590155136E+03   -0.30432E-02   -0.14692E-01    60   0.218E+00    0.947E-02
RMM:   2    -0.101590219062E+03   -0.63926E-04   -0.17211E-03    60   0.240E-01    0.591E-02
RMM:   3    -0.101590238451E+03   -0.19389E-04   -0.37394E-04    60   0.111E-01    0.115E-02
RMM:   4    -0.101590246898E+03   -0.84476E-05   -0.79360E-05    57   0.493E-02
  43 F= -.10181314E+03 E0= -.10181314E+03  d E =-.293117E-02
       N       E                     dE             d eps       ncg     rms          rms(c)
DAV:   1    -0.101589548475E+03    0.68998E-03   -0.83411E-03    72   0.518E-01    0.220E-02
RMM:   2    -0.101589550748E+03   -0.22735E-05   -0.84332E-05    57   0.535E-02
  44 F= -.10181249E+03 E0= -.10181249E+03  d E =0.649656E-03
       N       E                     dE             d eps       ncg     rms          rms(c)
DAV:   1    -0.101590482041E+03   -0.93357E-03   -0.12977E-02    66   0.641E-01    0.263E-02
RMM:   2    -0.101590487257E+03   -0.52160E-05   -0.14243E-04    58   0.690E-02    0.158E-02
RMM:   3    -0.101590488461E+03   -0.12045E-05   -0.29816E-05    45   0.312E-02
  45 F= -.10181337E+03 E0= -.10181337E+03  d E =-.876597E-03
       N       E                     dE             d eps       ncg     rms          rms(c)
DAV:   1    -0.101593215019E+03   -0.27278E-02   -0.11476E-01    60   0.192E+00    0.837E-02
RMM:   2    -0.101593262024E+03   -0.47005E-04   -0.13581E-03    60   0.212E-01    0.520E-02
RMM:   3    -0.101593277080E+03   -0.15055E-04   -0.29787E-04    60   0.989E-02    0.107E-02
RMM:   4    -0.101593283863E+03   -0.67833E-05   -0.62244E-05    52   0.442E-02
  46 F= -.10181598E+03 E0= -.10181598E+03  d E =-.260955E-02
       N       E                     dE             d eps       ncg     rms          rms(c)
DAV:   1    -0.101597378038E+03   -0.41010E-02   -0.27143E-01    60   0.295E+00    0.129E-01
RMM:   2    -0.101597487214E+03   -0.10918E-03   -0.31487E-03    60   0.322E-01    0.801E-02
RMM:   3    -0.101597516428E+03   -0.29214E-04   -0.69879E-04    60   0.150E-01    0.144E-02
RMM:   4    -0.101597531361E+03   -0.14933E-04   -0.14209E-04    64   0.659E-02    0.980E-03
RMM:   5    -0.101597533040E+03   -0.16789E-05   -0.25481E-05    43   0.295E-02
  47 F= -.10181994E+03 E0= -.10181994E+03  d E =-.395568E-02
       N       E                     dE             d eps       ncg     rms          rms(c)
DAV:   1    -0.101597318226E+03    0.21314E-03   -0.12329E-03    66   0.199E-01    0.827E-03
RMM:   2    -0.101597319470E+03   -0.12448E-05   -0.11372E-05    39   0.196E-02
  48 F= -.10181974E+03 E0= -.10181974E+03  d E =0.197855E-03
       N       E                     dE             d eps       ncg     rms          rms(c)
DAV:   1    -0.101598518706E+03   -0.12005E-02   -0.21523E-02    66   0.830E-01    0.355E-02
RMM:   2    -0.101598526845E+03   -0.81393E-05   -0.24600E-04    60   0.902E-02    0.218E-02
RMM:   3    -0.101598530165E+03   -0.33200E-05   -0.53396E-05    57   0.417E-02
  49 F= -.10182086E+03 E0= -.10182086E+03  d E =-.112462E-02
       N       E                     dE             d eps       ncg     rms          rms(c)
DAV:   1    -0.101600484184E+03   -0.19573E-02   -0.58695E-02    60   0.137E+00    0.598E-02
RMM:   2    -0.101600510499E+03   -0.26315E-04   -0.71352E-04    60   0.153E-01    0.373E-02
RMM:   3    -0.101600520822E+03   -0.10323E-04   -0.15741E-04    60   0.717E-02    0.704E-03
RMM:   4    -0.101600524261E+03   -0.34398E-05   -0.29953E-05    46   0.315E-02
  50 F= -.10182271E+03 E0= -.10182271E+03  d E =-.184983E-02
       N       E                     dE             d eps       ncg     rms          rms(c)
DAV:   1    -0.101600436191E+03    0.84630E-04   -0.27201E-04    66   0.956E-02    0.424E-03
RMM:   2    -0.101600436604E+03   -0.41258E-06   -0.31377E-06    39   0.103E-02
  51 F= -.10182263E+03 E0= -.10182263E+03  d E =0.803666E-04
       N       E                     dE             d eps       ncg     rms          rms(c)
DAV:   1    -0.101600979513E+03   -0.54332E-03   -0.42089E-03    66   0.367E-01    0.154E-02
RMM:   2    -0.101600981640E+03   -0.21276E-05   -0.50502E-05    50   0.408E-02
  52 F= -.10182314E+03 E0= -.10182314E+03  d E =-.505040E-03
       N       E                     dE             d eps       ncg     rms          rms(c)
DAV:   1    -0.101605946107E+03   -0.49666E-02   -0.37643E-01    60   0.347E+00    0.152E-01
RMM:   2    -0.101606094006E+03   -0.14790E-03   -0.44149E-03    60   0.380E-01    0.940E-02
RMM:   3    -0.101606134128E+03   -0.40122E-04   -0.99520E-04    60   0.180E-01    0.165E-02
RMM:   4    -0.101606153536E+03   -0.19409E-04   -0.18939E-04    64   0.785E-02    0.114E-02
RMM:   5    -0.101606156292E+03   -0.27560E-05   -0.41931E-05    46   0.365E-02
  53 F= -.10182792E+03 E0= -.10182792E+03  d E =-.478652E-02
       N       E                     dE             d eps       ncg     rms          rms(c)
DAV:   1    -0.101606249692E+03   -0.96155E-04   -0.23837E-04    74   0.873E-02    0.438E-03
RMM:   2    -0.101606250528E+03   -0.83639E-06   -0.55324E-06    38   0.130E-02
  54 F= -.10182801E+03 E0= -.10182801E+03  d E =-.867832E-04
       N       E                     dE             d eps       ncg     rms          rms(c)
DAV:   1    -0.101606676142E+03   -0.42645E-03   -0.26486E-03    66   0.292E-01    0.131E-02
RMM:   2    -0.101606677586E+03   -0.14439E-05   -0.32259E-05    43   0.324E-02
  55 F= -.10182840E+03 E0= -.10182840E+03  d E =-.393723E-03
       N       E                     dE             d eps       ncg     rms          rms(c)
DAV:   1    -0.101607251454E+03   -0.57531E-03   -0.47925E-03    72   0.394E-01    0.182E-02
RMM:   2    -0.101607253451E+03   -0.19965E-05   -0.58744E-05    50   0.436E-02
  56 F= -.10182894E+03 E0= -.10182894E+03  d E =-.530818E-03
       N       E                     dE             d eps       ncg     rms          rms(c)
DAV:   1    -0.101610256205E+03   -0.30048E-02   -0.14589E-01    60   0.215E+00    0.942E-02
RMM:   2    -0.101610312483E+03   -0.56277E-04   -0.17136E-03    60   0.236E-01    0.583E-02
RMM:   3    -0.101610332183E+03   -0.19701E-04   -0.38478E-04    60   0.112E-01    0.101E-02
RMM:   4    -0.101610339801E+03   -0.76173E-05   -0.71918E-05    54   0.491E-02
  57 F= -.10183177E+03 E0= -.10183177E+03  d E =-.283759E-02
       N       E                     dE             d eps       ncg     rms          rms(c)
DAV:   1    -0.101612108777E+03   -0.17766E-02   -0.52417E-02    60   0.129E+00    0.566E-02
RMM:   2    -0.101612130727E+03   -0.21951E-04   -0.64621E-04    60   0.145E-01    0.354E-02
RMM:   3    -0.101612140680E+03   -0.99521E-05   -0.14586E-04    60   0.687E-02    0.620E-03
RMM:   4    -0.101612143617E+03   -0.29371E-05   -0.24996E-05    44   0.296E-02
  58 F= -.10183343E+03 E0= -.10183343E+03  d E =-.165323E-02
       N       E                     dE             d eps       ncg     rms          rms(c)
DAV:   1    -0.101613013883E+03   -0.87320E-03   -0.12629E-02    66   0.634E-01    0.279E-02
RMM:   2    -0.101613019156E+03   -0.52731E-05   -0.15940E-04    59   0.719E-02    0.174E-02
RMM:   3    -0.101613022164E+03   -0.30085E-05   -0.36367E-05    49   0.343E-02
  59 F= -.10183423E+03 E0= -.10183423E+03  d E =-.803633E-03
       N       E                     dE             d eps       ncg     rms          rms(c)
DAV:   1    -0.101614254070E+03   -0.12349E-02   -0.26009E-02    60   0.908E-01    0.398E-02
RMM:   2    -0.101614265303E+03   -0.11233E-04   -0.32303E-04    60   0.103E-01    0.248E-02
RMM:   3    -0.101614271279E+03   -0.59757E-05   -0.71726E-05    58   0.485E-02
  60 F= -.10183537E+03 E0= -.10183537E+03  d E =-.114070E-02
       N       E                     dE             d eps       ncg     rms          rms(c)
DAV:   1    -0.101614699286E+03   -0.43398E-03   -0.32329E-03    72   0.322E-01    0.146E-02
RMM:   2    -0.101614701933E+03   -0.26471E-05   -0.48776E-05    50   0.399E-02
  61 F= -.10183576E+03 E0= -.10183576E+03  d E =-.392522E-03
       N       E                     dE             d eps       ncg     rms          rms(c)
DAV:   1    -0.101616564518E+03   -0.18652E-02   -0.61763E-02    60   0.141E+00    0.618E-02
RMM:   2    -0.101616587660E+03   -0.23142E-04   -0.73879E-04    60   0.155E-01    0.383E-02
RMM:   3    -0.101616598211E+03   -0.10552E-04   -0.16671E-04    60   0.733E-02    0.689E-03
RMM:   4    -0.101616601427E+03   -0.32158E-05   -0.28879E-05    46   0.316E-02
  62 F= -.10183749E+03 E0= -.10183749E+03  d E =-.172846E-02
       N       E                     dE             d eps       ncg     rms          rms(c)
DAV:   1    -0.101618520456E+03   -0.19222E-02   -0.69080E-02    60   0.148E+00    0.647E-02
RMM:   2    -0.101618546872E+03   -0.26416E-04   -0.83213E-04    60   0.165E-01    0.401E-02
RMM:   3    -0.101618557632E+03   -0.10761E-04   -0.18915E-04    61   0.778E-02    0.741E-03
RMM:   4    -0.101618561197E+03   -0.35646E-05   -0.32157E-05    47   0.334E-02
  63 F= -.10183927E+03 E0= -.10183927E+03  d E =-.177773E-02
       N       E                     dE             d eps       ncg     rms          rms(c)
DAV:   1    -0.101618507830E+03    0.49802E-04   -0.53641E-05    82   0.423E-02    0.251E-03
RMM:   2    -0.101618508220E+03   -0.38970E-06   -0.50436E-07    28   0.453E-03
  64 F= -.10183922E+03 E0= -.10183922E+03  d E =0.481841E-04
       N       E                     dE             d eps       ncg     rms          rms(c)
DAV:   1    -0.101618441144E+03    0.66687E-04   -0.81417E-05    74   0.516E-02    0.222E-03
RMM:   2    -0.101618441540E+03   -0.39695E-06   -0.76741E-07    30   0.524E-03
  65 F= -.10183916E+03 E0= -.10183916E+03  d E =0.602309E-04
       N       E                     dE             d eps       ncg     rms          rms(c)
DAV:   1    -0.101618901743E+03   -0.46060E-03   -0.44174E-03    72   0.380E-01    0.163E-02
RMM:   2    -0.101618903575E+03   -0.18318E-05   -0.53109E-05    51   0.420E-02
  66 F= -.10183958E+03 E0= -.10183958E+03  d E =-.415628E-03
       N       E                     dE             d eps       ncg     rms          rms(c)
DAV:   1    -0.101619504318E+03   -0.60257E-03   -0.88062E-03    60   0.548E-01    0.253E-02
RMM:   2    -0.101619507026E+03   -0.27084E-05   -0.10572E-04    58   0.599E-02    0.159E-02
RMM:   3    -0.101619509109E+03   -0.20830E-05   -0.23811E-05    42   0.278E-02
  67 F= -.10184012E+03 E0= -.10184012E+03  d E =-.541266E-03
       N       E                     dE             d eps       ncg     rms          rms(c)
DAV:   1    -0.101619343409E+03    0.16362E-03   -0.12743E-03    72   0.211E-01    0.880E-03
RMM:   2    -0.101619343811E+03   -0.40149E-06   -0.13656E-05    37   0.217E-02
  68 F= -.10183997E+03 E0= -.10183997E+03  d E =0.145051E-03
       N       E                     dE             d eps       ncg     rms          rms(c)
DAV:   1    -0.101621600737E+03   -0.22573E-02   -0.11882E-01    60   0.197E+00    0.844E-02
RMM:   2    -0.101621647754E+03   -0.47016E-04   -0.13830E-03    60   0.215E-01    0.518E-02
RMM:   3    -0.101621663183E+03   -0.15429E-04   -0.29918E-04    61   0.984E-02    0.115E-02
RMM:   4    -0.101621668848E+03   -0.56650E-05   -0.51655E-05    51   0.424E-02
  69 F= -.10184206E+03 E0= -.10184206E+03  d E =-.208321E-02
       N       E                     dE             d eps       ncg     rms          rms(c)
DAV:   1    -0.101623533953E+03   -0.18708E-02   -0.85007E-02    60   0.167E+00    0.725E-02
RMM:   2    -0.101623568806E+03   -0.34853E-04   -0.10315E-03    60   0.185E-01    0.450E-02
RMM:   3    -0.101623582299E+03   -0.13493E-04   -0.22934E-04    61   0.860E-02    0.985E-03
RMM:   4    -0.101623586859E+03   -0.45605E-05   -0.41283E-05    48   0.370E-02
  70 F= -.10184377E+03 E0= -.10184377E+03  d E =-.171400E-02
       N       E                     dE             d eps       ncg     rms          rms(c)
DAV:   1    -0.101626110297E+03   -0.25280E-02   -0.16649E-01    60   0.234E+00    0.102E-01
RMM:   2    -0.101626176756E+03   -0.66459E-04   -0.19732E-03    60   0.256E-01    0.628E-02
RMM:   3    -0.101626199882E+03   -0.23126E-04   -0.43655E-04    61   0.119E-01    0.133E-02
RMM:   4    -0.101626208567E+03   -0.86846E-05   -0.79083E-05    58   0.511E-02
  71 F= -.10184610E+03 E0= -.10184610E+03  d E =-.233207E-02
       N       E                     dE             d eps       ncg     rms          rms(c)
DAV:   1    -0.101627053428E+03   -0.85355E-03   -0.19519E-02    72   0.800E-01    0.353E-02
RMM:   2    -0.101627062345E+03   -0.89173E-05   -0.24563E-04    60   0.900E-02    0.223E-02
RMM:   3    -0.101627066968E+03   -0.46229E-05   -0.54196E-05    57   0.422E-02
  72 F= -.10184686E+03 E0= -.10184686E+03  d E =-.762024E-03
       N       E                     dE             d eps       ncg     rms          rms(c)
DAV:   1    -0.101627502708E+03   -0.44036E-03   -0.52767E-03    66   0.416E-01    0.185E-02
RMM:   2    -0.101627506127E+03   -0.34193E-05   -0.70664E-05    56   0.487E-02
  73 F= -.10184725E+03 E0= -.10184725E+03  d E =-.389230E-03
       N       E                     dE             d eps       ncg     rms          rms(c)
DAV:   1    -0.101628657189E+03   -0.11545E-02   -0.38546E-02    60   0.112E+00    0.496E-02
RMM:   2    -0.101628670837E+03   -0.13648E-04   -0.44964E-04    60   0.122E-01    0.309E-02
RMM:   3    -0.101628678375E+03   -0.75375E-05   -0.10045E-04    59   0.569E-02    0.618E-03
RMM:   4    -0.101628680737E+03   -0.23618E-05   -0.17741E-05    41   0.247E-02
  74 F= -.10184829E+03 E0= -.10184829E+03  d E =-.104002E-02
       N       E                     dE             d eps       ncg     rms          rms(c)
DAV:   1    -0.101629517019E+03   -0.83864E-03   -0.21374E-02    60   0.834E-01    0.362E-02
RMM:   2    -0.101629525073E+03   -0.80546E-05   -0.25115E-04    60   0.912E-02    0.225E-02
RMM:   3    -0.101629528999E+03   -0.39259E-05   -0.55530E-05    57   0.422E-02
  75 F= -.10184904E+03 E0= -.10184904E+03  d E =-.748773E-03
       N       E                     dE             d eps       ncg     rms          rms(c)
DAV:   1    -0.101630120369E+03   -0.59530E-03   -0.11128E-02    60   0.602E-01    0.263E-02
RMM:   2    -0.101630126041E+03   -0.56721E-05   -0.14009E-04    58   0.685E-02    0.167E-02
RMM:   3    -0.101630129049E+03   -0.30077E-05   -0.29849E-05    45   0.316E-02
  76 F= -.10184957E+03 E0= -.10184957E+03  d E =-.528624E-03
       N       E                     dE             d eps       ncg     rms          rms(c)
DAV:   1    -0.101631619378E+03   -0.14933E-02   -0.74061E-02    60   0.155E+00    0.670E-02
RMM:   2    -0.101631646773E+03   -0.27395E-04   -0.85821E-04    60   0.169E-01    0.416E-02
RMM:   3    -0.101631659012E+03   -0.12239E-04   -0.18868E-04    61   0.781E-02    0.872E-03
RMM:   4    -0.101631663080E+03   -0.40682E-05   -0.35667E-05    46   0.340E-02
  77 F= -.10185092E+03 E0= -.10185092E+03  d E =-.134788E-02
       N       E                     dE             d eps       ncg     rms          rms(c)
DAV:   1    -0.101632068635E+03   -0.40962E-03   -0.55866E-03    66   0.429E-01    0.189E-02
RMM:   2    -0.101632071430E+03   -0.27957E-05   -0.73412E-05    56   0.492E-02
  78 F= -.10185128E+03 E0= -.10185128E+03  d E =-.357206E-03
       N       E                     dE             d eps       ncg     rms          rms(c)
DAV:   1    -0.101632074245E+03   -0.56100E-05   -0.22007E-05    80   0.259E-02    0.384E-03
RMM:   2    -0.101632074544E+03   -0.29973E-06   -0.12105E-06    31   0.601E-03
  79 F= -.10185128E+03 E0= -.10185128E+03  d E =-.300615E-05
       N       E                     dE             d eps       ncg     rms          rms(c)
DAV:   1    -0.101631477187E+03    0.59706E-03   -0.11428E-02    60   0.613E-01    0.266E-02
RMM:   2    -0.101631481771E+03   -0.45836E-05   -0.12897E-04    58   0.659E-02    0.162E-02
RMM:   3    -0.101631484048E+03   -0.22777E-05   -0.26930E-05    44   0.297E-02
  80 F= -.10185076E+03 E0= -.10185076E+03  d E =0.516340E-03
       N       E                     dE             d eps       ncg     rms          rms(c)
DAV:   1    -0.101634098132E+03   -0.26164E-02   -0.25549E-01    60   0.290E+00    0.124E-01
RMM:   2    -0.101634191334E+03   -0.93202E-04   -0.28701E-03    60   0.310E-01    0.762E-02
RMM:   3    -0.101634215069E+03   -0.23735E-04   -0.61018E-04    60   0.142E-01    0.169E-02
RMM:   4    -0.101634229412E+03   -0.14343E-04   -0.13013E-04    63   0.627E-02    0.106E-02
RMM:   5    -0.101634230457E+03   -0.10450E-05   -0.23310E-05    43   0.286E-02
  81 F= -.10185316E+03 E0= -.10185316E+03  d E =-.239512E-02
       N       E                     dE             d eps       ncg     rms          rms(c)
DAV:   1    -0.101634751196E+03   -0.52178E-03   -0.97816E-03    66   0.572E-01    0.274E-02
RMM:   2    -0.101634752298E+03   -0.11023E-05   -0.12490E-04    60   0.659E-02    0.163E-02
RMM:   3    -0.101634753228E+03   -0.92934E-06   -0.26302E-05    43   0.303E-02
  82 F= -.10185361E+03 E0= -.10185361E+03  d E =-.455691E-03
       N       E                     dE             d eps       ncg     rms          rms(c)
DAV:   1    -0.101634712517E+03    0.39781E-04   -0.33350E-04    66   0.103E-01    0.790E-03
RMM:   2    -0.101634712212E+03    0.30512E-06   -0.82632E-06    38   0.145E-02
  83 F= -.10185358E+03 E0= -.10185358E+03  d E =0.352163E-04
       N       E                     dE             d eps       ncg     rms          rms(c)
DAV:   1    -0.101634959632E+03   -0.24711E-03   -0.21011E-03    66   0.262E-01    0.108E-02
RMM:   2    -0.101634960701E+03   -0.10686E-05   -0.24695E-05    43   0.285E-02
  84 F= -.10185379E+03 E0= -.10185379E+03  d E =-.216025E-03
       N       E                     dE             d eps       ncg     rms          rms(c)
DAV:   1    -0.101636867577E+03   -0.19079E-02   -0.13579E-01    60   0.210E+00    0.920E-02
RMM:   2    -0.101636912860E+03   -0.45283E-04   -0.15342E-03    60   0.226E-01    0.569E-02
RMM:   3    -0.101636929491E+03   -0.16631E-04   -0.33588E-04    60   0.105E-01    0.112E-02
RMM:   4    -0.101636936775E+03   -0.72841E-05   -0.66046E-05    54   0.459E-02
  85 F= -.10185551E+03 E0= -.10185551E+03  d E =-.171490E-02
       N       E                     dE             d eps       ncg     rms          rms(c)
DAV:   1    -0.101637687571E+03   -0.75808E-03   -0.21005E-02    72   0.828E-01    0.362E-02
RMM:   2    -0.101637696782E+03   -0.92114E-05   -0.25836E-04    60   0.922E-02    0.230E-02
RMM:   3    -0.101637701253E+03   -0.44702E-05   -0.56600E-05    57   0.429E-02
  86 F= -.10185617E+03 E0= -.10185617E+03  d E =-.661132E-03
       N       E                     dE             d eps       ncg     rms          rms(c)
DAV:   1    -0.101639500204E+03   -0.18034E-02   -0.13038E-01    60   0.206E+00    0.888E-02
RMM:   2    -0.101639553893E+03   -0.53689E-04   -0.15309E-03    60   0.226E-01    0.552E-02
RMM:   3    -0.101639572632E+03   -0.18738E-04   -0.32759E-04    60   0.104E-01    0.116E-02
RMM:   4    -0.101639580522E+03   -0.78899E-05   -0.69681E-05    54   0.463E-02
  87 F= -.10185779E+03 E0= -.10185779E+03  d E =-.161905E-02
       N       E                     dE             d eps       ncg     rms          rms(c)
DAV:   1    -0.101639746575E+03   -0.17394E-03   -0.11284E-03    66   0.196E-01    0.100E-02
RMM:   2    -0.101639747933E+03   -0.13582E-05   -0.21606E-05    44   0.267E-02
  88 F= -.10185793E+03 E0= -.10185793E+03  d E =-.143502E-03
       N       E                     dE             d eps       ncg     rms          rms(c)
DAV:   1    -0.101639712976E+03    0.33599E-04   -0.69514E-05    74   0.469E-02    0.249E-03
RMM:   2    -0.101639713509E+03   -0.53280E-06   -0.59711E-07    29   0.514E-03
  89 F= -.10185790E+03 E0= -.10185790E+03  d E =0.292472E-04
       N       E                     dE             d eps       ncg     rms          rms(c)
DAV:   1    -0.101640073892E+03   -0.36092E-03   -0.54784E-03    66   0.418E-01    0.177E-02
RMM:   2    -0.101640075931E+03   -0.20390E-05   -0.60750E-05    52   0.446E-02
  90 F= -.10185821E+03 E0= -.10185821E+03  d E =-.311816E-03
       N       E                     dE             d eps       ncg     rms          rms(c)
DAV:   1    -0.101640055665E+03    0.18227E-04   -0.34905E-05    80   0.348E-02    0.293E-03
RMM:   2    -0.101640055988E+03   -0.32305E-06   -0.54110E-07    26   0.497E-03
  91 F= -.10185820E+03 E0= -.10185820E+03  d E =0.165029E-04
       N       E                     dE             d eps       ncg     rms          rms(c)
DAV:   1    -0.101639616360E+03    0.43930E-03   -0.10487E-02    66   0.570E-01    0.235E-02
RMM:   2    -0.101639619948E+03   -0.35874E-05   -0.11038E-04    58   0.598E-02    0.147E-02
RMM:   3    -0.101639621464E+03   -0.15162E-05   -0.24611E-05    44   0.277E-02
  92 F= -.10185782E+03 E0= -.10185782E+03  d E =0.375091E-03
       N       E                     dE             d eps       ncg     rms          rms(c)
DAV:   1    -0.101639789341E+03   -0.16939E-03   -0.11000E-03    72   0.200E-01    0.999E-03
RMM:   2    -0.101639789582E+03   -0.24133E-06   -0.15321E-05    40   0.226E-02
  93 F= -.10185797E+03 E0= -.10185797E+03  d E =-.143839E-03
       N       E                     dE             d eps       ncg     rms          rms(c)
DAV:   1    -0.101639777618E+03    0.11723E-04   -0.81578E-04    72   0.165E-01    0.732E-03
RMM:   2    -0.101639777874E+03   -0.25615E-06   -0.10472E-05    38   0.183E-02
  94 F= -.10185796E+03 E0= -.10185796E+03  d E =0.111602E-04
       N       E                     dE             d eps       ncg     rms          rms(c)
DAV:   1    -0.101640214295E+03   -0.43668E-03   -0.48671E-03    72   0.403E-01    0.179E-02
RMM:   2    -0.101640216569E+03   -0.22741E-05   -0.60904E-05    53   0.454E-02
  95 F= -.10185833E+03 E0= -.10185833E+03  d E =-.377193E-03
       N       E                     dE             d eps       ncg     rms          rms(c)
DAV:   1    -0.101640552505E+03   -0.33821E-03   -0.29752E-03    66   0.315E-01    0.158E-02
RMM:   2    -0.101640553375E+03   -0.87037E-06   -0.39229E-05    45   0.359E-02
  96 F= -.10185862E+03 E0= -.10185862E+03  d E =-.291076E-03
       N       E                     dE             d eps       ncg     rms          rms(c)
DAV:   1    -0.101640876583E+03   -0.32408E-03   -0.31925E-03    66   0.323E-01    0.146E-02
RMM:   2    -0.101640877834E+03   -0.12506E-05   -0.39568E-05    45   0.358E-02
  97 F= -.10185890E+03 E0= -.10185890E+03  d E =-.280157E-03
       N       E                     dE             d eps       ncg     rms          rms(c)
DAV:   1    -0.101641565309E+03   -0.68873E-03   -0.15339E-02    72   0.700E-01    0.308E-02
RMM:   2    -0.101641570545E+03   -0.52362E-05   -0.17890E-04    59   0.762E-02    0.192E-02
RMM:   3    -0.101641573212E+03   -0.26667E-05   -0.40668E-05    51   0.362E-02
  98 F= -.10185950E+03 E0= -.10185950E+03  d E =-.600277E-03
       N       E                     dE             d eps       ncg     rms          rms(c)
DAV:   1    -0.101641967282E+03   -0.39674E-03   -0.50962E-03    72   0.404E-01    0.177E-02
RMM:   2    -0.101641970269E+03   -0.29872E-05   -0.68984E-05    53   0.477E-02
  99 F= -.10185985E+03 E0= -.10185985E+03  d E =-.341655E-03
       N       E                     dE             d eps       ncg     rms          rms(c)
DAV:   1    -0.101642581070E+03   -0.61379E-03   -0.12468E-02    72   0.632E-01    0.280E-02
RMM:   2    -0.101642585583E+03   -0.45123E-05   -0.15038E-04    59   0.696E-02    0.177E-02
RMM:   3    -0.101642588173E+03   -0.25909E-05   -0.34589E-05    48   0.332E-02
 100 F= -.10186038E+03 E0= -.10186038E+03  d E =-.531764E-03
       N       E                     dE             d eps       ncg     rms          rms(c)
DAV:   1    -0.101643722778E+03   -0.11372E-02   -0.46374E-02    60   0.121E+00    0.516E-02
RMM:   2    -0.101643741509E+03   -0.18731E-04   -0.55090E-04    60   0.134E-01    0.322E-02
RMM:   3    -0.101643748889E+03   -0.73798E-05   -0.12185E-04    58   0.627E-02    0.613E-03
RMM:   4    -0.101643751301E+03   -0.24121E-05   -0.21810E-05    43   0.271E-02
 101 F= -.10186138E+03 E0= -.10186138E+03  d E =-.997288E-03
       N       E                     dE             d eps       ncg     rms          rms(c)
DAV:   1    -0.101643978064E+03   -0.22918E-03   -0.17578E-03    72   0.238E-01    0.106E-02
RMM:   2    -0.101643979214E+03   -0.11502E-05   -0.25767E-05    43   0.287E-02
 102 F= -.10186157E+03 E0= -.10186157E+03  d E =-.194902E-03
       N       E                     dE             d eps       ncg     rms          rms(c)
DAV:   1    -0.101644057081E+03   -0.79017E-04   -0.18201E-04    66   0.795E-02    0.467E-03
RMM:   2    -0.101644057312E+03   -0.23105E-06   -0.28201E-06    34   0.952E-03
 103 F= -.10186164E+03 E0= -.10186164E+03  d E =-.669290E-04
       N       E                     dE             d eps       ncg     rms          rms(c)
DAV:   1    -0.101642849033E+03    0.12080E-02   -0.46392E-02    60   0.122E+00    0.522E-02
RMM:   2    -0.101642865843E+03   -0.16810E-04   -0.53277E-04    60   0.132E-01    0.319E-02
RMM:   3    -0.101642871526E+03   -0.56830E-05   -0.11636E-04    59   0.611E-02    0.646E-03
RMM:   4    -0.101642873905E+03   -0.23793E-05   -0.19463E-05    42   0.264E-02
 104 F= -.10186062E+03 E0= -.10186062E+03  d E =0.101281E-02
       N       E                     dE             d eps       ncg     rms          rms(c)
DAV:   1    -0.101645811043E+03   -0.29395E-02   -0.32694E-01    72   0.323E+00    0.137E-01
RMM:   2    -0.101645932858E+03   -0.12181E-03   -0.37227E-03    60   0.349E-01    0.843E-02
RMM:   3    -0.101645963751E+03   -0.30893E-04   -0.82548E-04    61   0.162E-01    0.164E-02
RMM:   4    -0.101645978303E+03   -0.14552E-04   -0.13793E-04    61   0.693E-02    0.103E-02
RMM:   5    -0.101645980996E+03   -0.26926E-05   -0.35100E-05    45   0.334E-02
 105 F= -.10186328E+03 E0= -.10186328E+03  d E =-.265068E-02
       N       E                     dE             d eps       ncg     rms          rms(c)
DAV:   1    -0.101648110519E+03   -0.21322E-02   -0.17840E-01    72   0.238E+00    0.102E-01
RMM:   2    -0.101648177168E+03   -0.66649E-04   -0.20868E-03    60   0.261E-01    0.632E-02
RMM:   3    -0.101648196778E+03   -0.19610E-04   -0.46886E-04    61   0.122E-01    0.121E-02
RMM:   4    -0.101648205364E+03   -0.85857E-05   -0.81043E-05    57   0.524E-02
 106 F= -.10186516E+03 E0= -.10186516E+03  d E =-.188119E-02
       N       E                     dE             d eps       ncg     rms          rms(c)
DAV:   1    -0.101647055730E+03    0.11410E-02   -0.46570E-02    72   0.122E+00    0.518E-02
RMM:   2    -0.101647070630E+03   -0.14900E-04   -0.49976E-04    60   0.128E-01    0.312E-02
RMM:   3    -0.101647075695E+03   -0.50652E-05   -0.10716E-04    59   0.586E-02    0.613E-03
RMM:   4    -0.101647078520E+03   -0.28252E-05   -0.18606E-05    41   0.256E-02
 107 F= -.10186421E+03 E0= -.10186421E+03  d E =0.950677E-03
       N       E                     dE             d eps       ncg     rms          rms(c)
DAV:   1    -0.101647649176E+03   -0.57348E-03   -0.11877E-02    66   0.615E-01    0.260E-02
RMM:   2    -0.101647653040E+03   -0.38643E-05   -0.13099E-04    58   0.657E-02    0.157E-02
RMM:   3    -0.101647654305E+03   -0.12653E-05   -0.28581E-05    44   0.303E-02
 108 F= -.10186469E+03 E0= -.10186469E+03  d E =-.486530E-03
