 vasp.6.3.2 27Jun22 (build Oct 05 2023 17:59:42) gamma-only                     
  
 executed on             LinuxIFC date 2024.04.05  18:28:44
 running on   18 total cores
 each image running on    2 cores
 distrk:  each k-point on    2 cores,    1 groups
 distr:  one band on NCORE=   1 cores,    2 groups


--------------------------------------------------------------------------------------------------------


 INCAR:
   ENCUT = 400.000000
   SIGMA = 0.050000
   ALGO = Fast
   GGA = PE
   ISMEAR = 0
   ISPIN = 1
   IVDW = 11
   LCHARG = .FALSE.
   LWAVE = .FALSE.
   EDIFF = 1E-05
   EDIFFG = -0.05
   NSW = 5000
   IBRION = 1
   SPRING = -5
   POTIM = 0.1
   PREC = NORMAL
   IMAGES = 9
   LCLIMB = .TRUE.

 POTCAR:    PAW_PBE C 08Apr2002                   
 POTCAR:    PAW_PBE H 15Jun2001                   
 POTCAR:    PAW_PBE N 08Apr2002                   
 POTCAR:    PAW_PBE C 08Apr2002                   
   SHA256 =  253f7b50bb8d59471dbedb8285d89021f4a42ed1a2c5d38a03a736e69125dd95 C/POTCAR              
   COPYR  = (c) Copyright 08Apr2002 Georg Kresse                                                    
   COPYR  = This file is part of the software VASP. Any use, copying, and all other rights are regul
   COPYR  = If you do not have a valid VASP license, you may not use, copy or distribute this file. 
   VRHFIN =C: s2p2                                                                                  
   LEXCH  = PE                                                                                      
   EATOM  =   147.1560 eV,   10.8157 Ry                                                             
                                                                                                    
   TITEL  = PAW_PBE C 08Apr2002                                                                     
   LULTRA =        F    use ultrasoft PP ?                                                          
   IUNSCR =        1    unscreen: 0-lin 1-nonlin 2-no                                               
   RPACOR =    1.200    partial core radius                                                         
   POMASS =   12.011; ZVAL   =    4.000    mass and valenz                                          
   RCORE  =    1.500    outmost cutoff radius                                                       
   RWIGS  =    1.630; RWIGS  =    0.863    wigner-seitz radius (au A)                               
   ENMAX  =  400.000; ENMIN  =  300.000 eV                                                          
   ICORE  =        2    local potential                                                             
   LCOR   =        T    correct aug charges                                                         
   LPAW   =        T    paw PP                                                                      
   EAUG   =  644.873                                                                                
   DEXC   =    0.000                                                                                
   RMAX   =    1.529    core radius for proj-oper                                                   
   RAUG   =    1.300    factor for augmentation sphere                                              
   RDEP   =    1.501    radius for radial grids                                                     
   RDEPT  =    1.300    core radius for aug-charge                                                  
                                                                                                    
   Atomic configuration                                                                             
    4 entries                                                                                       
     n  l   j            E        occ.                                                              
     1  0  0.50      -273.3789   2.0000                                                             
     2  0  0.50       -13.7508   2.0000                                                             
     2  1  0.50        -5.2854   2.0000                                                             
     3  2  1.50        -5.4423   0.0000                                                             
   Description                                                                                      
     l       E           TYP  RCUT    TYP  RCUT                                                     
     0    -13.7508458     23  1.200                                                                 
     0     -8.2022199     23  1.200                                                                 
     1     -5.2854383     23  1.500                                                                 
     1     34.0145650     23  1.500                                                                 
     2     -5.4423304      7  1.500                                                                 
  local pseudopotential read in
  partial core-charges read in
  partial kinetic energy density read in
  atomic valenz-charges read in
  non local Contribution for L=           0  read in
    real space projection operators read in
  non local Contribution for L=           0  read in
    real space projection operators read in
  non local Contribution for L=           1  read in
    real space projection operators read in
  non local Contribution for L=           1  read in
    real space projection operators read in
    PAW grid and wavefunctions read in
 
   number of l-projection  operators is LMAX  =           4
   number of lm-projection operators is LMMAX =           8
 
 POTCAR:    PAW_PBE H 15Jun2001                   
   SHA256 =  030f79b5d3ab3cf0e668861823c8fb652ff669f3e15e46930bd03bfd63a607b6 H/POTCAR              
   COPYR  = (c) Copyright 15Jun2001 Georg Kresse                                                    
   COPYR  = This file is part of the software VASP. Any use, copying, and all other rights are regul
   COPYR  = If you do not have a valid VASP license, you may not use, copy or distribute this file. 
   VRHFIN =H: ultrasoft test                                                                        
   LEXCH  = PE                                                                                      
   EATOM  =    12.4884 eV,    0.9179 Ry                                                             
                                                                                                    
   TITEL  = PAW_PBE H 15Jun2001                                                                     
   LULTRA =        F    use ultrasoft PP ?                                                          
   IUNSCR =        0    unscreen: 0-lin 1-nonlin 2-no                                               
   RPACOR =    0.000    partial core radius                                                         
   POMASS =    1.000; ZVAL   =    1.000    mass and valenz                                          
   RCORE  =    1.100    outmost cutoff radius                                                       
   RWIGS  =    0.700; RWIGS  =    0.370    wigner-seitz radius (au A)                               
   ENMAX  =  250.000; ENMIN  =  200.000 eV                                                          
   RCLOC  =    0.701    cutoff for local pot                                                        
   LCOR   =        T    correct aug charges                                                         
   LPAW   =        T    paw PP                                                                      
   EAUG   =  400.000                                                                                
   RMAX   =    1.123    core radius for proj-oper                                                   
   RAUG   =    1.200    factor for augmentation sphere                                              
   RDEP   =    1.112    radius for radial grids                                                     
   RDEPT  =    0.926    core radius for aug-charge                                                  
                                                                                                    
   Atomic configuration                                                                             
    2 entries                                                                                       
     n  l   j            E        occ.                                                              
     1  0  0.50        -6.4927   1.0000                                                             
     2  1  0.50        -3.4015   0.0000                                                             
   Description                                                                                      
     l       E           TYP  RCUT    TYP  RCUT                                                     
     0     -6.4927494     23  1.100                                                                 
     0      6.8029130     23  1.100                                                                 
     1     -4.0817478     23  1.100                                                                 
  local pseudopotential read in
  atomic valenz-charges read in
  non local Contribution for L=           0  read in
    real space projection operators read in
  non local Contribution for L=           0  read in
    real space projection operators read in
  non local Contribution for L=           1  read in
    real space projection operators read in
    PAW grid and wavefunctions read in
 
   number of l-projection  operators is LMAX  =           3
   number of lm-projection operators is LMMAX =           5
 
 POTCAR:    PAW_PBE N 08Apr2002                   
   SHA256 =  e053789ff3a61a86a1b75d8a110fcc91f86041011e7b0817c7c99e4e8a6349d7 N/POTCAR              
   COPYR  = (c) Copyright 08Apr2002 Georg Kresse                                                    
   COPYR  = This file is part of the software VASP. Any use, copying, and all other rights are regul
   COPYR  = If you do not have a valid VASP license, you may not use, copy or distribute this file. 
   VRHFIN =N: s2p3                                                                                  
   LEXCH  = PE                                                                                      
   EATOM  =   264.5486 eV,   19.4438 Ry                                                             
                                                                                                    
   TITEL  = PAW_PBE N 08Apr2002                                                                     
   LULTRA =        F    use ultrasoft PP ?                                                          
   IUNSCR =        1    unscreen: 0-lin 1-nonlin 2-no                                               
   RPACOR =    1.200    partial core radius                                                         
   POMASS =   14.001; ZVAL   =    5.000    mass and valenz                                          
   RCORE  =    1.500    outmost cutoff radius                                                       
   RWIGS  =    1.400; RWIGS  =    0.741    wigner-seitz radius (au A)                               
   ENMAX  =  400.000; ENMIN  =  300.000 eV                                                          
   ICORE  =        2    local potential                                                             
   LCOR   =        T    correct aug charges                                                         
   LPAW   =        T    paw PP                                                                      
   EAUG   =  627.112                                                                                
   DEXC   =    0.000                                                                                
   RMAX   =    1.529    core radius for proj-oper                                                   
   RAUG   =    1.300    factor for augmentation sphere                                              
   RDEP   =    1.514    radius for radial grids                                                     
   RDEPT  =    1.338    core radius for aug-charge                                                  
                                                                                                    
   Atomic configuration                                                                             
    4 entries                                                                                       
     n  l   j            E        occ.                                                              
     1  0  0.50      -384.7179   2.0000                                                             
     2  0  0.50       -18.5828   2.0000                                                             
     2  1  0.50        -7.0898   3.0000                                                             
     3  2  1.50        -6.8029   0.0000                                                             
   Description                                                                                      
     l       E           TYP  RCUT    TYP  RCUT                                                     
     0    -18.5828119     23  1.200                                                                 
     0    -13.5018863     23  1.200                                                                 
     1     -7.0897853     23  1.500                                                                 
     1      9.5240782     23  1.500                                                                 
     2     -6.8029130      7  1.500                                                                 
  local pseudopotential read in
  partial core-charges read in
  partial kinetic energy density read in
  atomic valenz-charges read in
  non local Contribution for L=           0  read in
    real space projection operators read in
  non local Contribution for L=           0  read in
    real space projection operators read in
  non local Contribution for L=           1  read in
    real space projection operators read in
  non local Contribution for L=           1  read in
    real space projection operators read in
    PAW grid and wavefunctions read in
 
   number of l-projection  operators is LMAX  =           4
   number of lm-projection operators is LMMAX =           8
 
 -----------------------------------------------------------------------------
|                                                                             |
|               ----> ADVICE to this user running VASP <----                  |
|                                                                             |
|     You have a (more or less) 'large supercell' and for larger cells it     |
|     might be more efficient to use real-space projection operators.         |
|     Therefore, try LREAL= Auto in the INCAR file.                           |
|     Mind: For very accurate calculation, you might also keep the            |
|     reciprocal projection scheme (i.e. LREAL=.FALSE.).                      |
|                                                                             |
 -----------------------------------------------------------------------------

  PAW_PBE C 08Apr2002                   :
 energy of atom  1       EATOM= -147.1560
 kinetic energy error for atom=    0.0288 (will be added to EATOM!!)
  PAW_PBE H 15Jun2001                   :
 energy of atom  2       EATOM=  -12.4884
 kinetic energy error for atom=    0.0098 (will be added to EATOM!!)
  PAW_PBE N 08Apr2002                   :
 energy of atom  3       EATOM= -264.5486
 kinetic energy error for atom=    0.0736 (will be added to EATOM!!)
 
 
 POSCAR:  C  H  N
  positions in cartesian coordinates
  No initial velocities read in
 exchange correlation table for  LEXCH =        8
   RHO(1)=    0.500       N(1)  =     2000
   RHO(2)=  100.500       N(2)  =     4000

 VTST: version 4.1, (05/19/21)

 CHAIN: initializing optimizer
 
 OPT: Using VASP QUASI-newton optimizer
 CHAIN: Read ICHAIN            0
 CHAIN: Running the NEB
 NEB:          SPRING     -5.000000
 NEB:          LCLIMB      T
 NEB:     LTANGENTOLD      F
 NEB:           LDNEB      F
 NEB:        LDNEBORG      F
 NEB:        LNEBCELL      F
 NEB:          EFIRST      0.000000
 NEB:           ELAST      0.000000
 
 POSCAR:  C  H  N
  positions in cartesian coordinates
  No initial velocities read in
 
 POSCAR:  C  H  N
  positions in cartesian coordinates
  No initial velocities read in
 
 POSCAR:  C  H  N
  positions in cartesian coordinates
  No initial velocities read in
 
 POSCAR:  C  H  N
  positions in cartesian coordinates
  No initial velocities read in
 


--------------------------------------------------------------------------------------------------------


 ion  position               nearest neighbor table
   1  0.338  0.439  0.577-   8 1.09   4 1.35   2 1.45
   2  0.336  0.533  0.579-  11 1.09   3 1.34   1 1.45
   3  0.404  0.585  0.562-  13 1.09  12 1.09   2 1.34
   4  0.409  0.392  0.558-   9 1.09  10 1.09   1 1.35
   5  0.445  0.440  0.388-  14 1.08  15 1.09   6 1.34
   6  0.444  0.527  0.393-  16 1.09   5 1.34   7 1.42
   7  0.520  0.579  0.389-  17 1.17   6 1.42
   8  0.276  0.406  0.585-   1 1.09
   9  0.471  0.424  0.551-   4 1.09
  10  0.407  0.322  0.550-   4 1.09
  11  0.272  0.562  0.590-   2 1.09
  12  0.468  0.558  0.550-   3 1.09
  13  0.398  0.655  0.558-   3 1.09
  14  0.386  0.403  0.394-   5 1.08
  15  0.505  0.405  0.380-   5 1.09
  16  0.384  0.563  0.403-   6 1.09
  17  0.582  0.624  0.387-   7 1.17
 
  LATTYP: Found a simple cubic cell.
 ALAT       =    15.4022502899
  
  Lattice vectors:
  
 A1 = (  15.4022502899,   0.0000000000,   0.0000000000)
 A2 = (   0.0000000000,  15.4022502899,   0.0000000000)
 A3 = (   0.0000000000,   0.0000000000,  15.4022502899)


Analysis of symmetry for initial positions (statically):
=====================================================================
 Subroutine PRICEL returns:
 Original cell was already a primitive cell.
 

 Routine SETGRP: Setting up the symmetry group for a 
 simple cubic supercell.


 Subroutine GETGRP returns: Found  1 space group operations
 (whereof  1 operations were pure point group operations)
 out of a pool of 48 trial point group operations.


The static configuration has the point symmetry C_1 .


Analysis of symmetry for dynamics (positions and initial velocities):
=====================================================================
 Subroutine PRICEL returns:
 Original cell was already a primitive cell.
 

 Routine SETGRP: Setting up the symmetry group for a 
 simple cubic supercell.


 Subroutine GETGRP returns: Found  1 space group operations
 (whereof  1 operations were pure point group operations)
 out of a pool of 48 trial point group operations.


The dynamic configuration has the point symmetry C_1 .


 Subroutine INISYM returns: Found  1 space group operations
 (whereof  1 operations are pure point group operations),
 and found     1 'primitive' translations


----------------------------------------------------------------------------------------

                                     Primitive cell                                     

  volume of cell :    3653.8653

  direct lattice vectors                    reciprocal lattice vectors
    15.402250290  0.000000000  0.000000000     0.064925578  0.000000000  0.000000000
     0.000000000 15.402250290  0.000000000     0.000000000  0.064925578  0.000000000
     0.000000000  0.000000000 15.402250290     0.000000000  0.000000000  0.064925578

  length of vectors
    15.402250290 15.402250290 15.402250290     0.064925578  0.064925578  0.064925578

  position of ions in fractional coordinates (direct lattice)
     0.337947307  0.438882692  0.576645371
     0.335682338  0.533097187  0.579121562
     0.403817291  0.584973690  0.562483018
     0.408994085  0.391535105  0.558256806
     0.445251069  0.440371947  0.387833099
     0.443855599  0.527447098  0.392556560
     0.519906412  0.579192439  0.388897336
     0.275662947  0.406391160  0.585447881
     0.471249900  0.423611526  0.550506848
     0.407411808  0.321500063  0.549934804
     0.272110104  0.562160044  0.589990821
     0.468074794  0.558497479  0.550316338
     0.398364680  0.655135453  0.557812397
     0.385873490  0.403085819  0.393669878
     0.505477012  0.404525745  0.380138394
     0.383729627  0.562788647  0.402858370
     0.581509045  0.623597576  0.387122878

  ion indices of the primitive-cell ions
   primitive index   ion index
                 1           1
                 2           2
                 3           3
                 4           4
                 5           5
                 6           6
                 7           7
                 8           8
                 9           9
                10          10
                11          11
                12          12
                13          13
                14          14
                15          15
                16          16
                17          17

----------------------------------------------------------------------------------------

 
 
 KPOINTS: KPOINTS created by Atomic Simulation Env

Automatic generation of k-mesh.
 Grid dimensions read from file:
 generate k-points for:    1    1    1

 Generating k-lattice:

  Cartesian coordinates                     Fractional coordinates (reciprocal lattice)
     0.064925578  0.000000000  0.000000000     1.000000000  0.000000000  0.000000000
     0.000000000  0.064925578  0.000000000     0.000000000  1.000000000  0.000000000
     0.000000000  0.000000000  0.064925578     0.000000000  0.000000000  1.000000000

  Length of vectors
     0.064925578  0.064925578  0.064925578

  Shift w.r.t. Gamma in fractional coordinates (k-lattice)
     0.000000000  0.000000000  0.000000000

 
 Subroutine IBZKPT returns following result:
 ===========================================
 
 Found      1 irreducible k-points:
 
 Following reciprocal coordinates:
            Coordinates               Weight
  0.000000  0.000000  0.000000      1.000000
 
 Following cartesian coordinates:
            Coordinates               Weight
  0.000000  0.000000  0.000000      1.000000
 


--------------------------------------------------------------------------------------------------------




 Dimension of arrays:
   k-points           NKPTS =      1   k-points in BZ     NKDIM =      1   number of bands    NBANDS=     30
   number of dos      NEDOS =    301   number of ions     NIONS =     17
   non local maximal  LDIM  =      4   non local SUM 2l+1 LMDIM =      8
   total plane-waves  NPLWV = 512000
   max r-space proj   IRMAX =      1   max aug-charges    IRDMAX=   1924
   dimension x,y,z NGX =    80 NGY =   80 NGZ =   80
   dimension x,y,z NGXF=   160 NGYF=  160 NGZF=  160
   support grid    NGXF=   160 NGYF=  160 NGZF=  160
   ions per type =               7   9   1
   NGX,Y,Z   is equivalent  to a cutoff of   8.63,  8.63,  8.63 a.u.
   NGXF,Y,Z  is equivalent  to a cutoff of  17.27, 17.27, 17.27 a.u.

 SYSTEM =  unknown system                          
 POSCAR =   C  H  N                                

 Startparameter for this run:
   NWRITE =      2    write-flag & timer
   PREC   = normal    normal or accurate (medium, high low for compatibility)
   ISTART =      0    job   : 0-new  1-cont  2-samecut
   ICHARG =      2    charge: 1-file 2-atom 10-const
   ISPIN  =      1    spin polarized calculation?
   LNONCOLLINEAR =      F non collinear calculations
   LSORBIT =      F    spin-orbit coupling
   INIWAV =      1    electr: 0-lowe 1-rand  2-diag
   LASPH  =      F    aspherical Exc in radial PAW
 Electronic Relaxation 1
   ENCUT  =  400.0 eV  29.40 Ry    5.42 a.u.  25.12 25.12 25.12*2*pi/ulx,y,z
   ENINI  =  400.0     initial cutoff
   ENAUG  =  644.9 eV  augmentation charge cutoff
   NELM   =     60;   NELMIN=  2; NELMDL= -5     # of ELM steps 
   EDIFF  = 0.1E-04   stopping-criterion for ELM
   LREAL  =      F    real-space projection
   NLSPLINE    = F    spline interpolate recip. space projectors
   LCOMPAT=      F    compatible to vasp.4.4
   GGA_COMPAT  = T    GGA compatible to vasp.4.4-vasp.4.6
   LMAXPAW     = -100 max onsite density
   LMAXMIX     =    2 max onsite mixed and CHGCAR
   VOSKOWN=      0    Vosko Wilk Nusair interpolation
   ROPT   =    0.00000   0.00000   0.00000
 Ionic relaxation
   EDIFFG = -.5E-01   stopping-criterion for IOM
   NSW    =   5000    number of steps for IOM
   NBLOCK =      1;   KBLOCK =   5000    inner block; outer block 
   IBRION =      1    ionic relax: 0-MD 1-quasi-New 2-CG
   NFREE  =      0    steps in history (QN), initial steepest desc. (CG)
   ISIF   =      2    stress and relaxation
   IWAVPR =     11    prediction:  0-non 1-charg 2-wave 3-comb
   ISYM   =      2    0-nonsym 1-usesym 2-fastsym
   LCORR  =      T    Harris-Foulkes like correction to forces

   POTIM  = 0.1000    time-step for ionic-motion
   TEIN   =    0.0    initial temperature
   TEBEG  =    0.0;   TEEND  =   0.0 temperature during run
   SMASS  =  -3.00    Nose mass-parameter (am)
   estimated Nose-frequenzy (Omega)   =  0.10E-29 period in steps = 0.63E+47 mass=  -0.542E-26a.u.
   SCALEE = 1.0000    scale energy and forces
   NPACO  =    256;   APACO  = 10.0  distance and # of slots for P.C.
   PSTRESS=    0.0 pullay stress

  Mass of Ions in am
   POMASS =  12.01  1.00 14.00
  Ionic Valenz
   ZVAL   =   4.00  1.00  5.00
  Atomic Wigner-Seitz radii
   RWIGS  =  -1.00 -1.00 -1.00
  virtual crystal weights 
   VCA    =   1.00  1.00  1.00
   NELECT =      42.0000    total number of electrons
   NUPDOWN=      -1.0000    fix difference up-down

 DOS related values:
   EMIN   =  10.00;   EMAX   =-10.00  energy-range for DOS
   EFERMI =   0.00
   ISMEAR =     0;   SIGMA  =   0.05  broadening in eV -4-tet -1-fermi 0-gaus

 Electronic relaxation 2 (details)
   IALGO  =     68    algorithm
   LDIAG  =      T    sub-space diagonalisation (order eigenvalues)
   LSUBROT=      F    optimize rotation matrix (better conditioning)
   TURBO    =      0    0=normal 1=particle mesh
   IRESTART =      0    0=no restart 2=restart with 2 vectors
   NREBOOT  =      0    no. of reboots
   NMIN     =      0    reboot dimension
   EREF     =   0.00    reference energy to select bands
   IMIX   =      4    mixing-type and parameters
     AMIX     =   0.40;   BMIX     =  1.00
     AMIX_MAG =   1.60;   BMIX_MAG =  1.00
     AMIN     =   0.10
     WC   =   100.;   INIMIX=   1;  MIXPRE=   1;  MAXMIX= -45

 Intra band minimization:
   WEIMIN = 0.0010     energy-eigenvalue tresh-hold
   EBREAK =  0.83E-07  absolut break condition
   DEPER  =   0.30     relativ break condition  

   TIME   =   0.40     timestep for ELM

  volume/ion in A,a.u.               =     214.93      1450.44
  Fermi-wavevector in a.u.,A,eV,Ry     =   0.369465  0.698188  1.857259  0.136505
  Thomas-Fermi vector in A             =   1.296107
 
 Write flags
   LWAVE        =      F    write WAVECAR
   LDOWNSAMPLE  =      F    k-point downsampling of WAVECAR
   LCHARG       =      F    write CHGCAR
   LVTOT        =      F    write LOCPOT, total local potential
   LVHAR        =      F    write LOCPOT, Hartree potential only
   LELF         =      F    write electronic localiz. function (ELF)
   LORBIT       =      0    0 simple, 1 ext, 2 COOP (PROOUT), +10 PAW based schemes


 Dipole corrections
   LMONO  =      F    monopole corrections only (constant potential shift)
   LDIPOL =      F    correct potential (dipole corrections)
   IDIPOL =      0    1-x, 2-y, 3-z, 4-all directions 
   EPSILON=  1.0000000 bulk dielectric constant

 Exchange correlation treatment:
   GGA     =    PE    GGA type
   LEXCH   =     8    internal setting for exchange type
   LIBXC   =     F    Libxc                    
   VOSKOWN =     0    Vosko Wilk Nusair interpolation
   LHFCALC =     F    Hartree Fock is set to
   LHFONE  =     F    Hartree Fock one center treatment
   AEXX    =    0.0000 exact exchange contribution

 Linear response parameters
   LEPSILON=     F    determine dielectric tensor
   LRPA    =     F    only Hartree local field effects (RPA)
   LNABLA  =     F    use nabla operator in PAW spheres
   LVEL    =     F    velocity operator in full k-point grid
   CSHIFT  =0.1000    complex shift for real part using Kramers Kronig
   OMEGAMAX=  -1.0    maximum frequency
   DEG_THRESHOLD= 0.2000000E-02 threshold for treating states as degnerate
   RTIME   =   -0.100 relaxation time in fs
  (WPLASMAI=    0.000 imaginary part of plasma frequency in eV, 0.658/RTIME)
   DFIELD  = 0.0000000 0.0000000 0.0000000 field for delta impulse in time
 
  Optional k-point grid parameters
   LKPOINTS_OPT  =     F    use optional k-point grid
   KPOINTS_OPT_MODE=     1    mode for optional k-point grid
 
 Orbital magnetization related:
   ORBITALMAG=     F  switch on orbital magnetization
   LCHIMAG   =     F  perturbation theory with respect to B field
   DQ        =  0.001000  dq finite difference perturbation B field
   LLRAUG    =     F  two centre corrections for induced B field



--------------------------------------------------------------------------------------------------------


 quasi-Newton-method for relaxation of ions
 charge density and potential will be updated during run
 non-spin polarized calculation
 RMM-DIIS sequential band-by-band and
  variant of blocked Davidson during initial phase
 perform sub-space diagonalisation
    before iterative eigenvector-optimisation
 modified Broyden-mixing scheme, WC =      100.0
 initial mixing is a Kerker type mixing with AMIX =  0.4000 and BMIX =      1.0000
 Hartree-type preconditioning will be used
 using additional bands            9
 reciprocal scheme for non local part
 use partial core corrections
 calculate Harris-corrections to forces 
   (improved forces if not selfconsistent)
 use gradient corrections 
 use of overlap-Matrix (Vanderbilt PP)
 Gauss-broadening in eV      SIGMA  =   0.05


--------------------------------------------------------------------------------------------------------


  energy-cutoff  :      400.00
  volume of cell :     3653.87
      direct lattice vectors                 reciprocal lattice vectors
    15.402250290  0.000000000  0.000000000     0.064925578  0.000000000  0.000000000
     0.000000000 15.402250290  0.000000000     0.000000000  0.064925578  0.000000000
     0.000000000  0.000000000 15.402250290     0.000000000  0.000000000  0.064925578

  length of vectors
    15.402250290 15.402250290 15.402250290     0.064925578  0.064925578  0.064925578


 
 k-points in units of 2pi/SCALE and weight: KPOINTS created by Atomic Simulation Env
   0.00000000  0.00000000  0.00000000       1.000
 
 k-points in reciprocal lattice and weights: KPOINTS created by Atomic Simulation Env
   0.00000000  0.00000000  0.00000000       1.000
 
 position of ions in fractional coordinates (direct lattice) 
   0.33794731  0.43888269  0.57664537
   0.33568234  0.53309719  0.57912156
   0.40381729  0.58497369  0.56248302
   0.40899409  0.39153510  0.55825681
   0.44525107  0.44037195  0.38783310
   0.44385560  0.52744710  0.39255656
   0.51990641  0.57919244  0.38889734
   0.27566295  0.40639116  0.58544788
   0.47124990  0.42361153  0.55050685
   0.40741181  0.32150006  0.54993480
   0.27211010  0.56216004  0.58999082
   0.46807479  0.55849748  0.55031634
   0.39836468  0.65513545  0.55781240
   0.38587349  0.40308582  0.39366988
   0.50547701  0.40452575  0.38013839
   0.38372963  0.56278865  0.40285837
   0.58150905  0.62359758  0.38712288
 
 position of ions in cartesian coordinates  (Angst):
   5.20514901  6.75978107  8.88163633
   5.17026339  8.21089631  8.91977525
   6.21969499  9.00991118  8.66350422
   6.29942927  6.03052168  8.59841105
   6.85786841  6.78271895  5.97350246
   6.83637503  8.12387222  6.04625439
   8.00772869  8.92086691  5.98989410
   4.24582971  6.25933837  9.01721480
   7.25830891  6.52457075  8.47904426
   6.27505863  4.95182443  8.47023349
   4.19110794  8.65852970  9.08718630
   7.20940513  8.60211796  8.47610997
   6.13571250 10.09056022  8.59156616
   5.94332008  6.20842867  6.06340199
   7.78548345  6.23060677  5.85498668
   5.91029977  8.66821160  6.20492545
   8.95654786  9.60480595  5.96256346
 


--------------------------------------------------------------------------------------------------------


 use serial FFT for orbitals x direction half grid
 k-point   1 :   0.0000 0.0000 0.0000  plane waves:   33270

 maximum and minimum number of plane-waves per node :     33270    33270

 maximum number of plane-waves:     33270
 maximum index in each direction: 
   IXMAX=   25   IYMAX=   25   IZMAX=   25
   IXMIN=    0   IYMIN=  -25   IZMIN=  -25


 serial   3D FFT for wavefunctions
 parallel 3D FFT for charge:
    minimum data exchange during FFTs selected (reduces bandwidth)


 total amount of memory used by VASP MPI-rank0   277942. kBytes
=======================================================================

   base      :      30000. kBytes
   nonl-proj :      15437. kBytes
   fftplans  :      71598. kBytes
   grid      :     152883. kBytes
   one-center:         26. kBytes
   wavefun   :       7998. kBytes
 
     INWAV:  cpu time      0.0000: real time      0.0000
 Broyden mixing: mesh for mixing (old mesh)
   NGX = 51   NGY = 51   NGZ = 51
  (NGX  =160   NGY  =160   NGZ  =160)
  gives a total of 132651 points

 initial charge density was supplied:
 charge density of overlapping atoms calculated
 number of electron      42.0000000 magnetization 
 keeping initial charge density in first step


--------------------------------------------------------------------------------------------------------


 Maximum index for augmentation-charges          843 (set IRDMAX)


--------------------------------------------------------------------------------------------------------


 First call to EWALD:  gamma=   0.115
 Maximum number of real-space cells 3x 3x 3
 Maximum number of reciprocal cells 3x 3x 3

    FEWALD:  cpu time      0.0020: real time      0.0020


--------------------------------------- Iteration      1(   1)  ---------------------------------------


    POTLOK:  cpu time      1.3955: real time      1.4047
    SETDIJ:  cpu time      0.0043: real time      0.0047
     EDDAV:  cpu time      3.5661: real time      3.5696
       DOS:  cpu time      0.0010: real time      0.0010
    --------------------------------------------
      LOOP:  cpu time      4.9669: real time      4.9800

 eigenvalue-minimisations  :    76
 total energy-change (2. order) : 0.3283898E+03  (-0.1017872E+04)
 number of electron      42.0000000 magnetization 
 augmentation part       42.0000000 magnetization 

 Free energy of the ion-electron system (eV)
  ---------------------------------------------------
  alpha Z        PSCENC =         2.15216506
  Ewald energy   TEWEN  =      2239.06040278
  -Hartree energ DENC   =     -3181.77189344
  -exchange      EXHF   =         0.00000000
  -V(xc)+E(xc)   XCENC  =       129.65004930
  PAW double counting   =       983.79330320     -989.05002801
  entropy T*S    EENTRO =        -0.00002136
  eigenvalues    EBANDS =      -262.11749029
  atomic energy  EATOM  =      1406.67326350
  Solvation  Ediel_sol  =         0.00000000
  ---------------------------------------------------
  free energy    TOTEN  =       328.38975073 eV

  energy without entropy =      328.38977209  energy(sigma->0) =      328.38976141


--------------------------------------------------------------------------------------------------------




--------------------------------------- Iteration      1(   2)  ---------------------------------------


     EDDAV:  cpu time      4.4065: real time      4.4069
       DOS:  cpu time      0.0002: real time      0.0002
    --------------------------------------------
      LOOP:  cpu time      4.4067: real time      4.4070

 eigenvalue-minimisations  :    96
 total energy-change (2. order) :-0.2685318E+03  (-0.2562203E+03)
 number of electron      42.0000000 magnetization 
 augmentation part       42.0000000 magnetization 

 Free energy of the ion-electron system (eV)
  ---------------------------------------------------
  alpha Z        PSCENC =         2.15216506
  Ewald energy   TEWEN  =      2239.06040278
  -Hartree energ DENC   =     -3181.77189344
  -exchange      EXHF   =         0.00000000
  -V(xc)+E(xc)   XCENC  =       129.65004930
  PAW double counting   =       983.79330320     -989.05002801
  entropy T*S    EENTRO =        -0.00000000
  eigenvalues    EBANDS =      -530.64929536
  atomic energy  EATOM  =      1406.67326350
  Solvation  Ediel_sol  =         0.00000000
  ---------------------------------------------------
  free energy    TOTEN  =        59.85796703 eV

  energy without entropy =       59.85796703  energy(sigma->0) =       59.85796703


--------------------------------------------------------------------------------------------------------




--------------------------------------- Iteration      1(   3)  ---------------------------------------


     EDDAV:  cpu time      3.7942: real time      3.7947
       DOS:  cpu time      0.0002: real time      0.0002
    --------------------------------------------
      LOOP:  cpu time      3.7944: real time      3.7949

 eigenvalue-minimisations  :    80
 total energy-change (2. order) :-0.1540236E+03  (-0.1536336E+03)
 number of electron      42.0000000 magnetization 
 augmentation part       42.0000000 magnetization 

 Free energy of the ion-electron system (eV)
  ---------------------------------------------------
  alpha Z        PSCENC =         2.15216506
  Ewald energy   TEWEN  =      2239.06040278
  -Hartree energ DENC   =     -3181.77189344
  -exchange      EXHF   =         0.00000000
  -V(xc)+E(xc)   XCENC  =       129.65004930
  PAW double counting   =       983.79330320     -989.05002801
  entropy T*S    EENTRO =        -0.00000000
  eigenvalues    EBANDS =      -684.67287760
  atomic energy  EATOM  =      1406.67326350
  Solvation  Ediel_sol  =         0.00000000
  ---------------------------------------------------
  free energy    TOTEN  =       -94.16561521 eV

  energy without entropy =      -94.16561521  energy(sigma->0) =      -94.16561521


--------------------------------------------------------------------------------------------------------




--------------------------------------- Iteration      1(   4)  ---------------------------------------


     EDDAV:  cpu time      3.9324: real time      3.9328
       DOS:  cpu time      0.0004: real time      0.0004
    --------------------------------------------
      LOOP:  cpu time      3.9328: real time      3.9332

 eigenvalue-minimisations  :    80
 total energy-change (2. order) :-0.1813649E+02  (-0.1810345E+02)
 number of electron      42.0000000 magnetization 
 augmentation part       42.0000000 magnetization 

 Free energy of the ion-electron system (eV)
  ---------------------------------------------------
  alpha Z        PSCENC =         2.15216506
  Ewald energy   TEWEN  =      2239.06040278
  -Hartree energ DENC   =     -3181.77189344
  -exchange      EXHF   =         0.00000000
  -V(xc)+E(xc)   XCENC  =       129.65004930
  PAW double counting   =       983.79330320     -989.05002801
  entropy T*S    EENTRO =        -0.00000000
  eigenvalues    EBANDS =      -702.80936483
  atomic energy  EATOM  =      1406.67326350
  Solvation  Ediel_sol  =         0.00000000
  ---------------------------------------------------
  free energy    TOTEN  =      -112.30210244 eV

  energy without entropy =     -112.30210244  energy(sigma->0) =     -112.30210244


--------------------------------------------------------------------------------------------------------




--------------------------------------- Iteration      1(   5)  ---------------------------------------


     EDDAV:  cpu time      2.0167: real time      2.0232
       DOS:  cpu time      0.0002: real time      0.0002
    CHARGE:  cpu time      0.1662: real time      0.1662
    MIXING:  cpu time      0.0301: real time      0.0301
    --------------------------------------------
      LOOP:  cpu time      2.2132: real time      2.2198

 eigenvalue-minimisations  :    80
 total energy-change (2. order) :-0.2672481E+00  (-0.2668447E+00)
 number of electron      42.0000009 magnetization 
 augmentation part        1.1949528 magnetization 

 Broyden mixing:
  rms(total) = 0.17372E+01    rms(broyden)= 0.17366E+01
  rms(prec ) = 0.19977E+01
  weight for this iteration     100.00

 Free energy of the ion-electron system (eV)
  ---------------------------------------------------
  alpha Z        PSCENC =         2.15216506
  Ewald energy   TEWEN  =      2239.06040278
  -Hartree energ DENC   =     -3181.77189344
  -exchange      EXHF   =         0.00000000
  -V(xc)+E(xc)   XCENC  =       129.65004930
  PAW double counting   =       983.79330320     -989.05002801
  entropy T*S    EENTRO =        -0.00000000
  eigenvalues    EBANDS =      -703.07661290
  atomic energy  EATOM  =      1406.67326350
  Solvation  Ediel_sol  =         0.00000000
  ---------------------------------------------------
  free energy    TOTEN  =      -112.56935051 eV

  energy without entropy =     -112.56935051  energy(sigma->0) =     -112.56935051


--------------------------------------------------------------------------------------------------------




--------------------------------------- Iteration      1(   6)  ---------------------------------------


    POTLOK:  cpu time      1.0344: real time      1.0347
    SETDIJ:  cpu time      0.0045: real time      0.0045
    EDDIAG:  cpu time      0.2215: real time      0.2216
  RMM-DIIS:  cpu time      1.3105: real time      1.3113
    ORTHCH:  cpu time      0.0143: real time      0.0143
       DOS:  cpu time      0.0001: real time      0.0001
    CHARGE:  cpu time      0.2870: real time      0.2870
    MIXING:  cpu time      0.0907: real time      0.0907
    --------------------------------------------
      LOOP:  cpu time      2.9629: real time      2.9641

 eigenvalue-minimisations  :    60
 total energy-change (2. order) : 0.8838150E+01  (-0.1257519E+01)
 number of electron      42.0000007 magnetization 
 augmentation part        1.1023349 magnetization 

 Broyden mixing:
  rms(total) = 0.93904E+00    rms(broyden)= 0.93894E+00
  rms(prec ) = 0.10594E+01
  weight for this iteration     100.00

 eigenvalues of (default mixing * dielectric matrix)
  average eigenvalue GAMMA=   1.7042
  1.7042

 Free energy of the ion-electron system (eV)
  ---------------------------------------------------
  alpha Z        PSCENC =         2.15216506
  Ewald energy   TEWEN  =      2239.06040278
  -Hartree energ DENC   =     -3263.41877503
  -exchange      EXHF   =         0.00000000
  -V(xc)+E(xc)   XCENC  =       134.00366999
  PAW double counting   =      1777.95604128    -1784.04897860
  entropy T*S    EENTRO =        -0.00000000
  eigenvalues    EBANDS =      -616.10898956
  atomic energy  EATOM  =      1406.67326350
  Solvation  Ediel_sol  =         0.00000000
  ---------------------------------------------------
  free energy    TOTEN  =      -103.73120057 eV

  energy without entropy =     -103.73120057  energy(sigma->0) =     -103.73120057


--------------------------------------------------------------------------------------------------------




--------------------------------------- Iteration      1(   7)  ---------------------------------------


    POTLOK:  cpu time      2.0874: real time      2.0876
    SETDIJ:  cpu time      0.0268: real time      0.0268
    EDDIAG:  cpu time      0.6258: real time      0.6258
  RMM-DIIS:  cpu time      2.9720: real time      2.9723
    ORTHCH:  cpu time      0.0239: real time      0.0239
       DOS:  cpu time      0.0003: real time      0.0003
    CHARGE:  cpu time      0.3832: real time      0.3858
    MIXING:  cpu time      0.0856: real time      0.0863
    --------------------------------------------
      LOOP:  cpu time      6.2051: real time      6.2090

 eigenvalue-minimisations  :    60
 total energy-change (2. order) : 0.2052296E+01  (-0.1189152E+01)
 number of electron      42.0000009 magnetization 
 augmentation part        1.0387222 magnetization 

 Broyden mixing:
  rms(total) = 0.39569E+00    rms(broyden)= 0.39548E+00
  rms(prec ) = 0.43009E+00
  weight for this iteration     100.00

 eigenvalues of (default mixing * dielectric matrix)
  average eigenvalue GAMMA=   1.4408
  1.0533  1.8283

 Free energy of the ion-electron system (eV)
  ---------------------------------------------------
  alpha Z        PSCENC =         2.15216506
  Ewald energy   TEWEN  =      2239.06040278
  -Hartree energ DENC   =     -3336.68835072
  -exchange      EXHF   =         0.00000000
  -V(xc)+E(xc)   XCENC  =       137.98841263
  PAW double counting   =      2856.39897365    -2863.01156351
  entropy T*S    EENTRO =        -0.00000000
  eigenvalues    EBANDS =      -544.25220803
  atomic energy  EATOM  =      1406.67326350
  Solvation  Ediel_sol  =         0.00000000
  ---------------------------------------------------
  free energy    TOTEN  =      -101.67890465 eV

  energy without entropy =     -101.67890465  energy(sigma->0) =     -101.67890465


--------------------------------------------------------------------------------------------------------




--------------------------------------- Iteration      1(   8)  ---------------------------------------


    POTLOK:  cpu time      2.3420: real time      2.3424
    SETDIJ:  cpu time      0.0257: real time      0.0256
    EDDIAG:  cpu time      0.6251: real time      0.6252
  RMM-DIIS:  cpu time      2.8643: real time      2.8647
    ORTHCH:  cpu time      0.0079: real time      0.0081
       DOS:  cpu time      0.0001: real time      0.0001
    CHARGE:  cpu time      0.1467: real time      0.1467
    MIXING:  cpu time      0.0312: real time      0.0312
    --------------------------------------------
      LOOP:  cpu time      6.0430: real time      6.0440

 eigenvalue-minimisations  :    60
 total energy-change (2. order) : 0.1638232E+00  (-0.6991833E-01)
 number of electron      42.0000009 magnetization 
 augmentation part        1.0283593 magnetization 

 Broyden mixing:
  rms(total) = 0.23627E+00    rms(broyden)= 0.23623E+00
  rms(prec ) = 0.25876E+00
  weight for this iteration     100.00

 eigenvalues of (default mixing * dielectric matrix)
  average eigenvalue GAMMA=   1.7592
  2.6596  1.8035  0.8144

 Free energy of the ion-electron system (eV)
  ---------------------------------------------------
  alpha Z        PSCENC =         2.15216506
  Ewald energy   TEWEN  =      2239.06040278
  -Hartree energ DENC   =     -3343.98719938
  -exchange      EXHF   =         0.00000000
  -V(xc)+E(xc)   XCENC  =       138.52056414
  PAW double counting   =      3159.68551859    -3166.21199235
  entropy T*S    EENTRO =        -0.00000000
  eigenvalues    EBANDS =      -537.40780376
  atomic energy  EATOM  =      1406.67326350
  Solvation  Ediel_sol  =         0.00000000
  ---------------------------------------------------
  free energy    TOTEN  =      -101.51508141 eV

  energy without entropy =     -101.51508141  energy(sigma->0) =     -101.51508141


--------------------------------------------------------------------------------------------------------




--------------------------------------- Iteration      1(   9)  ---------------------------------------


    POTLOK:  cpu time      1.6754: real time      1.6763
    SETDIJ:  cpu time      0.0053: real time      0.0053
    EDDIAG:  cpu time      0.5382: real time      0.5382
  RMM-DIIS:  cpu time      3.2333: real time      3.2335
    ORTHCH:  cpu time      0.0269: real time      0.0269
       DOS:  cpu time      0.0002: real time      0.0002
    CHARGE:  cpu time      0.3858: real time      0.3858
    MIXING:  cpu time      0.0480: real time      0.0480
    --------------------------------------------
      LOOP:  cpu time      5.9130: real time      5.9143

 eigenvalue-minimisations  :    60
 total energy-change (2. order) : 0.9076735E-01  (-0.4609299E-01)
 number of electron      42.0000008 magnetization 
 augmentation part        1.0277279 magnetization 

 Broyden mixing:
  rms(total) = 0.63182E-01    rms(broyden)= 0.63168E-01
  rms(prec ) = 0.84661E-01
  weight for this iteration     100.00

 eigenvalues of (default mixing * dielectric matrix)
  average eigenvalue GAMMA=   1.4653
  2.3379  1.6520  0.9357  0.9357

 Free energy of the ion-electron system (eV)
  ---------------------------------------------------
  alpha Z        PSCENC =         2.15216506
  Ewald energy   TEWEN  =      2239.06040278
  -Hartree energ DENC   =     -3352.61704058
  -exchange      EXHF   =         0.00000000
  -V(xc)+E(xc)   XCENC  =       139.09490603
  PAW double counting   =      3584.13257588    -3590.47413487
  entropy T*S    EENTRO =        -0.00000000
  eigenvalues    EBANDS =      -529.44645187
  atomic energy  EATOM  =      1406.67326350
  Solvation  Ediel_sol  =         0.00000000
  ---------------------------------------------------
  free energy    TOTEN  =      -101.42431407 eV

  energy without entropy =     -101.42431407  energy(sigma->0) =     -101.42431407


--------------------------------------------------------------------------------------------------------




--------------------------------------- Iteration      1(  10)  ---------------------------------------


    POTLOK:  cpu time      1.1377: real time      1.1379
    SETDIJ:  cpu time      0.0029: real time      0.0029
    EDDIAG:  cpu time      0.2280: real time      0.2280
  RMM-DIIS:  cpu time      1.4246: real time      1.4247
    ORTHCH:  cpu time      0.0077: real time      0.0077
       DOS:  cpu time      0.0001: real time      0.0001
    CHARGE:  cpu time      0.1629: real time      0.1629
    MIXING:  cpu time      0.0329: real time      0.0329
    --------------------------------------------
      LOOP:  cpu time      2.9969: real time      2.9972

 eigenvalue-minimisations  :    64
 total energy-change (2. order) : 0.5099153E-02  (-0.7114155E-02)
 number of electron      42.0000008 magnetization 
 augmentation part        1.0257593 magnetization 

 Broyden mixing:
  rms(total) = 0.30197E-01    rms(broyden)= 0.30188E-01
  rms(prec ) = 0.53114E-01
  weight for this iteration     100.00

 eigenvalues of (default mixing * dielectric matrix)
  average eigenvalue GAMMA=   1.4624
  1.8660  1.8660  1.7058  0.8407  1.0335

 Free energy of the ion-electron system (eV)
  ---------------------------------------------------
  alpha Z        PSCENC =         2.15216506
  Ewald energy   TEWEN  =      2239.06040278
  -Hartree energ DENC   =     -3355.40718139
  -exchange      EXHF   =         0.00000000
  -V(xc)+E(xc)   XCENC  =       139.12751816
  PAW double counting   =      3538.26211276    -3544.64166672
  entropy T*S    EENTRO =        -0.00000000
  eigenvalues    EBANDS =      -526.64582906
  atomic energy  EATOM  =      1406.67326350
  Solvation  Ediel_sol  =         0.00000000
  ---------------------------------------------------
  free energy    TOTEN  =      -101.41921491 eV

  energy without entropy =     -101.41921491  energy(sigma->0) =     -101.41921491


--------------------------------------------------------------------------------------------------------




--------------------------------------- Iteration      1(  11)  ---------------------------------------


    POTLOK:  cpu time      1.2369: real time      1.2371
    SETDIJ:  cpu time      0.0043: real time      0.0043
    EDDIAG:  cpu time      0.2414: real time      0.2414
  RMM-DIIS:  cpu time      1.2432: real time      1.2433
    ORTHCH:  cpu time      0.0098: real time      0.0098
       DOS:  cpu time      0.0002: real time      0.0002
    CHARGE:  cpu time      0.1755: real time      0.1755
    MIXING:  cpu time      0.0298: real time      0.0298
    --------------------------------------------
      LOOP:  cpu time      2.9411: real time      2.9414

 eigenvalue-minimisations  :    60
 total energy-change (2. order) :-0.7051436E-02  (-0.8709251E-02)
 number of electron      42.0000008 magnetization 
 augmentation part        1.0238581 magnetization 

 Broyden mixing:
  rms(total) = 0.35006E-01    rms(broyden)= 0.34999E-01
  rms(prec ) = 0.46612E-01
  weight for this iteration     100.00

 eigenvalues of (default mixing * dielectric matrix)
  average eigenvalue GAMMA=   1.5095
  2.3954  2.3954  1.2675  1.2675  0.9243  0.8073

 Free energy of the ion-electron system (eV)
  ---------------------------------------------------
  alpha Z        PSCENC =         2.15216506
  Ewald energy   TEWEN  =      2239.06040278
  -Hartree energ DENC   =     -3362.54546254
  -exchange      EXHF   =         0.00000000
  -V(xc)+E(xc)   XCENC  =       139.21589239
  PAW double counting   =      3503.62002583    -3510.01063081
  entropy T*S    EENTRO =        -0.00000000
  eigenvalues    EBANDS =      -519.59192256
  atomic energy  EATOM  =      1406.67326350
  Solvation  Ediel_sol  =         0.00000000
  ---------------------------------------------------
  free energy    TOTEN  =      -101.42626635 eV

  energy without entropy =     -101.42626635  energy(sigma->0) =     -101.42626635


--------------------------------------------------------------------------------------------------------




--------------------------------------- Iteration      1(  12)  ---------------------------------------


    POTLOK:  cpu time      0.9931: real time      0.9931
    SETDIJ:  cpu time      0.0033: real time      0.0033
    EDDIAG:  cpu time      0.2156: real time      0.2156
  RMM-DIIS:  cpu time      1.4371: real time      1.4373
    ORTHCH:  cpu time      0.0142: real time      0.0142
       DOS:  cpu time      0.0002: real time      0.0002
    CHARGE:  cpu time      0.1937: real time      0.1937
    MIXING:  cpu time      0.0404: real time      0.0404
    --------------------------------------------
      LOOP:  cpu time      2.8976: real time      2.8979

 eigenvalue-minimisations  :    61
 total energy-change (2. order) : 0.2431764E-02  (-0.7935660E-03)
 number of electron      42.0000008 magnetization 
 augmentation part        1.0230973 magnetization 

 Broyden mixing:
  rms(total) = 0.22565E-01    rms(broyden)= 0.22564E-01
  rms(prec ) = 0.31866E-01
  weight for this iteration     100.00

 eigenvalues of (default mixing * dielectric matrix)
  average eigenvalue GAMMA=   1.6271
  2.6730  2.6730  1.4212  1.4212  1.4327  0.8216  0.9467

 Free energy of the ion-electron system (eV)
  ---------------------------------------------------
  alpha Z        PSCENC =         2.15216506
  Ewald energy   TEWEN  =      2239.06040278
  -Hartree energ DENC   =     -3364.13840652
  -exchange      EXHF   =         0.00000000
  -V(xc)+E(xc)   XCENC  =       139.24599232
  PAW double counting   =      3518.92525542    -3525.29770102
  entropy T*S    EENTRO =        -0.00000000
  eigenvalues    EBANDS =      -518.04480614
  atomic energy  EATOM  =      1406.67326350
  Solvation  Ediel_sol  =         0.00000000
  ---------------------------------------------------
  free energy    TOTEN  =      -101.42383459 eV

  energy without entropy =     -101.42383459  energy(sigma->0) =     -101.42383459


--------------------------------------------------------------------------------------------------------




--------------------------------------- Iteration      1(  13)  ---------------------------------------


    POTLOK:  cpu time      1.0833: real time      1.0835
    SETDIJ:  cpu time      0.0037: real time      0.0037
    EDDIAG:  cpu time      0.2339: real time      0.2339
  RMM-DIIS:  cpu time      1.3071: real time      1.3072
    ORTHCH:  cpu time      0.0108: real time      0.0108
       DOS:  cpu time      0.0002: real time      0.0002
    CHARGE:  cpu time      0.1718: real time      0.1718
    MIXING:  cpu time      0.0408: real time      0.0408
    --------------------------------------------
      LOOP:  cpu time      2.8515: real time      2.8517

 eigenvalue-minimisations  :    60
 total energy-change (2. order) :-0.7029329E-02  (-0.1395839E-02)
 number of electron      42.0000008 magnetization 
 augmentation part        1.0226528 magnetization 

 Broyden mixing:
  rms(total) = 0.68116E-02    rms(broyden)= 0.68031E-02
  rms(prec ) = 0.11876E-01
  weight for this iteration     100.00

 eigenvalues of (default mixing * dielectric matrix)
  average eigenvalue GAMMA=   1.7172
  4.0249  2.5092  1.8025  1.3382  1.3382  0.8321  0.9871  0.9050

 Free energy of the ion-electron system (eV)
  ---------------------------------------------------
  alpha Z        PSCENC =         2.15216506
  Ewald energy   TEWEN  =      2239.06040278
  -Hartree energ DENC   =     -3366.94870635
  -exchange      EXHF   =         0.00000000
  -V(xc)+E(xc)   XCENC  =       139.26994060
  PAW double counting   =      3510.66527765    -3517.02506371
  entropy T*S    EENTRO =        -0.00000000
  eigenvalues    EBANDS =      -515.27814344
  atomic energy  EATOM  =      1406.67326350
  Solvation  Ediel_sol  =         0.00000000
  ---------------------------------------------------
  free energy    TOTEN  =      -101.43086391 eV

  energy without entropy =     -101.43086391  energy(sigma->0) =     -101.43086391


--------------------------------------------------------------------------------------------------------




--------------------------------------- Iteration      1(  14)  ---------------------------------------


    POTLOK:  cpu time      1.0810: real time      1.0812
    SETDIJ:  cpu time      0.0036: real time      0.0036
    EDDIAG:  cpu time      0.2397: real time      0.2397
  RMM-DIIS:  cpu time      1.2884: real time      1.2885
    ORTHCH:  cpu time      0.0072: real time      0.0072
       DOS:  cpu time      0.0001: real time      0.0001
    CHARGE:  cpu time      0.1391: real time      0.1391
    MIXING:  cpu time      0.0311: real time      0.0311
    --------------------------------------------
      LOOP:  cpu time      2.7901: real time      2.7906

 eigenvalue-minimisations  :    62
 total energy-change (2. order) :-0.4005066E-02  (-0.3243382E-03)
 number of electron      42.0000008 magnetization 
 augmentation part        1.0222535 magnetization 

 Broyden mixing:
  rms(total) = 0.65212E-02    rms(broyden)= 0.65192E-02
  rms(prec ) = 0.99581E-02
  weight for this iteration     100.00

 eigenvalues of (default mixing * dielectric matrix)
  average eigenvalue GAMMA=   1.8309
  4.2779  2.7662  2.0298  2.0298  1.3414  1.3414  0.8113  0.9401  0.9401

 Free energy of the ion-electron system (eV)
  ---------------------------------------------------
  alpha Z        PSCENC =         2.15216506
  Ewald energy   TEWEN  =      2239.06040278
  -Hartree energ DENC   =     -3368.18979432
  -exchange      EXHF   =         0.00000000
  -V(xc)+E(xc)   XCENC  =       139.29473583
  PAW double counting   =      3514.36069140    -3520.72236241
  entropy T*S    EENTRO =        -0.00000000
  eigenvalues    EBANDS =      -514.06397082
  atomic energy  EATOM  =      1406.67326350
  Solvation  Ediel_sol  =         0.00000000
  ---------------------------------------------------
  free energy    TOTEN  =      -101.43486898 eV

  energy without entropy =     -101.43486898  energy(sigma->0) =     -101.43486898


--------------------------------------------------------------------------------------------------------




--------------------------------------- Iteration      1(  15)  ---------------------------------------


    POTLOK:  cpu time      0.9808: real time      0.9809
    SETDIJ:  cpu time      0.0037: real time      0.0037
    EDDIAG:  cpu time      0.2341: real time      0.2341
  RMM-DIIS:  cpu time      1.3693: real time      1.3695
    ORTHCH:  cpu time      0.0087: real time      0.0087
       DOS:  cpu time      0.0002: real time      0.0002
    CHARGE:  cpu time      0.1826: real time      0.1827
    MIXING:  cpu time      0.0479: real time      0.0478
    --------------------------------------------
      LOOP:  cpu time      2.8272: real time      2.8276

 eigenvalue-minimisations  :    60
 total energy-change (2. order) :-0.1119563E-01  (-0.2115759E-03)
 number of electron      42.0000008 magnetization 
 augmentation part        1.0223022 magnetization 

 Broyden mixing:
  rms(total) = 0.30323E-02    rms(broyden)= 0.30311E-02
  rms(prec ) = 0.45167E-02
  weight for this iteration     100.00

 eigenvalues of (default mixing * dielectric matrix)
  average eigenvalue GAMMA=   1.9422
  6.2113  2.7967  2.3488  1.7289  1.3577  1.3577  1.0739  0.8726  0.8726  0.8022

 Free energy of the ion-electron system (eV)
  ---------------------------------------------------
  alpha Z        PSCENC =         2.15216506
  Ewald energy   TEWEN  =      2239.06040278
  -Hartree energ DENC   =     -3368.90336152
  -exchange      EXHF   =         0.00000000
  -V(xc)+E(xc)   XCENC  =       139.27909191
  PAW double counting   =      3510.22403678    -3516.58864019
  entropy T*S    EENTRO =        -0.00000000
  eigenvalues    EBANDS =      -513.34302292
  atomic energy  EATOM  =      1406.67326350
  Solvation  Ediel_sol  =         0.00000000
  ---------------------------------------------------
  free energy    TOTEN  =      -101.44606461 eV

  energy without entropy =     -101.44606461  energy(sigma->0) =     -101.44606461


--------------------------------------------------------------------------------------------------------




--------------------------------------- Iteration      1(  16)  ---------------------------------------


    POTLOK:  cpu time      1.1625: real time      1.1631
    SETDIJ:  cpu time      0.0038: real time      0.0038
    EDDIAG:  cpu time      0.2391: real time      0.2391
  RMM-DIIS:  cpu time      1.3158: real time      1.3159
    ORTHCH:  cpu time      0.0092: real time      0.0092
       DOS:  cpu time      0.0001: real time      0.0001
    CHARGE:  cpu time      0.1877: real time      0.1877
    MIXING:  cpu time      0.0454: real time      0.0454
    --------------------------------------------
      LOOP:  cpu time      2.9636: real time      2.9643

 eigenvalue-minimisations  :    62
 total energy-change (2. order) :-0.1741687E-02  (-0.8185213E-04)
 number of electron      42.0000008 magnetization 
 augmentation part        1.0220789 magnetization 

 Broyden mixing:
  rms(total) = 0.27242E-02    rms(broyden)= 0.27239E-02
  rms(prec ) = 0.38411E-02
  weight for this iteration     100.00

 eigenvalues of (default mixing * dielectric matrix)
  average eigenvalue GAMMA=   1.9632
  6.7562  2.9302  2.2890  1.7676  1.3549  1.3549  1.2281  1.2281  0.8121  0.9370
  0.9370

 Free energy of the ion-electron system (eV)
  ---------------------------------------------------
  alpha Z        PSCENC =         2.15216506
  Ewald energy   TEWEN  =      2239.06040278
  -Hartree energ DENC   =     -3369.16097835
  -exchange      EXHF   =         0.00000000
  -V(xc)+E(xc)   XCENC  =       139.28150388
  PAW double counting   =      3509.56924616    -3515.93539545
  entropy T*S    EENTRO =        -0.00000000
  eigenvalues    EBANDS =      -513.08801388
  atomic energy  EATOM  =      1406.67326350
  Solvation  Ediel_sol  =         0.00000000
  ---------------------------------------------------
  free energy    TOTEN  =      -101.44780630 eV

  energy without entropy =     -101.44780630  energy(sigma->0) =     -101.44780630


--------------------------------------------------------------------------------------------------------




--------------------------------------- Iteration      1(  17)  ---------------------------------------


    POTLOK:  cpu time      0.9872: real time      0.9873
    SETDIJ:  cpu time      0.0032: real time      0.0032
    EDDIAG:  cpu time      0.1830: real time      0.1830
  RMM-DIIS:  cpu time      1.2903: real time      1.2904
    ORTHCH:  cpu time      0.0096: real time      0.0096
       DOS:  cpu time      0.0002: real time      0.0002
    CHARGE:  cpu time      0.2568: real time      0.2570
    MIXING:  cpu time      0.0735: real time      0.0735
    --------------------------------------------
      LOOP:  cpu time      2.8038: real time      2.8042

 eigenvalue-minimisations  :    61
 total energy-change (2. order) :-0.2748253E-02  (-0.5098017E-04)
 number of electron      42.0000008 magnetization 
 augmentation part        1.0219642 magnetization 

 Broyden mixing:
  rms(total) = 0.15030E-02    rms(broyden)= 0.15024E-02
  rms(prec ) = 0.21493E-02
  weight for this iteration     100.00

 eigenvalues of (default mixing * dielectric matrix)
  average eigenvalue GAMMA=   2.0480
  7.2773  3.6535  2.4250  2.0667  1.3753  1.3753  1.4115  1.4115  0.8169  0.9250
  0.9250  0.9131

 Free energy of the ion-electron system (eV)
  ---------------------------------------------------
  alpha Z        PSCENC =         2.15216506
  Ewald energy   TEWEN  =      2239.06040278
  -Hartree energ DENC   =     -3368.93150871
  -exchange      EXHF   =         0.00000000
  -V(xc)+E(xc)   XCENC  =       139.26807590
  PAW double counting   =      3509.96698514    -3516.33149022
  entropy T*S    EENTRO =        -0.00000000
  eigenvalues    EBANDS =      -513.30844801
  atomic energy  EATOM  =      1406.67326350
  Solvation  Ediel_sol  =         0.00000000
  ---------------------------------------------------
  free energy    TOTEN  =      -101.45055455 eV

  energy without entropy =     -101.45055455  energy(sigma->0) =     -101.45055455


--------------------------------------------------------------------------------------------------------




--------------------------------------- Iteration      1(  18)  ---------------------------------------


    POTLOK:  cpu time      2.2364: real time      2.6206
    SETDIJ:  cpu time      0.0051: real time      0.0051
    EDDIAG:  cpu time      0.5506: real time      0.5506
  RMM-DIIS:  cpu time      1.8420: real time      1.8422
    ORTHCH:  cpu time      0.0121: real time      0.0121
       DOS:  cpu time      0.0002: real time      0.0002
    CHARGE:  cpu time      0.2455: real time      0.2455
    MIXING:  cpu time      0.0623: real time      0.0622
    --------------------------------------------
      LOOP:  cpu time      4.9541: real time      5.3385

 eigenvalue-minimisations  :    55
 total energy-change (2. order) :-0.1003543E-02  (-0.2011549E-04)
 number of electron      42.0000008 magnetization 
 augmentation part        1.0219865 magnetization 

 Broyden mixing:
  rms(total) = 0.12180E-02    rms(broyden)= 0.12179E-02
  rms(prec ) = 0.16156E-02
  weight for this iteration     100.00

 eigenvalues of (default mixing * dielectric matrix)
  average eigenvalue GAMMA=   2.1206
  7.9577  4.3488  2.4708  1.9645  1.9645  1.3641  1.3641  1.2391  1.2391  0.8120
  0.9902  0.9264  0.9264

 Free energy of the ion-electron system (eV)
  ---------------------------------------------------
  alpha Z        PSCENC =         2.15216506
  Ewald energy   TEWEN  =      2239.06040278
  -Hartree energ DENC   =     -3368.94786375
  -exchange      EXHF   =         0.00000000
  -V(xc)+E(xc)   XCENC  =       139.26537750
  PAW double counting   =      3511.23019079    -3517.59402120
  entropy T*S    EENTRO =        -0.00000000
  eigenvalues    EBANDS =      -513.29107278
  atomic energy  EATOM  =      1406.67326350
  Solvation  Ediel_sol  =         0.00000000
  ---------------------------------------------------
  free energy    TOTEN  =      -101.45155809 eV

  energy without entropy =     -101.45155809  energy(sigma->0) =     -101.45155809


--------------------------------------------------------------------------------------------------------




--------------------------------------- Iteration      1(  19)  ---------------------------------------


    POTLOK:  cpu time      1.1927: real time      1.1929
    SETDIJ:  cpu time      0.0044: real time      0.0044
    EDDIAG:  cpu time      0.2304: real time      0.2304
  RMM-DIIS:  cpu time      1.2950: real time      1.2952
    ORTHCH:  cpu time      0.0100: real time      0.0101
       DOS:  cpu time      0.0002: real time      0.0002
    CHARGE:  cpu time      0.2510: real time      0.2510
    MIXING:  cpu time      0.1144: real time      0.1144
    --------------------------------------------
      LOOP:  cpu time      3.0982: real time      3.0986

 eigenvalue-minimisations  :    55
 total energy-change (2. order) :-0.5270565E-03  (-0.1081475E-04)
 number of electron      42.0000008 magnetization 
 augmentation part        1.0219359 magnetization 

 Broyden mixing:
  rms(total) = 0.47290E-03    rms(broyden)= 0.47276E-03
  rms(prec ) = 0.72069E-03
  weight for this iteration     100.00

 eigenvalues of (default mixing * dielectric matrix)
  average eigenvalue GAMMA=   2.1700
  8.5224  4.7722  2.5015  2.5015  1.8384  1.3548  1.3548  1.3663  1.3663  1.2036
  0.8143  0.9228  0.9306  0.9306

 Free energy of the ion-electron system (eV)
  ---------------------------------------------------
  alpha Z        PSCENC =         2.15216506
  Ewald energy   TEWEN  =      2239.06040278
  -Hartree energ DENC   =     -3369.01651580
  -exchange      EXHF   =         0.00000000
  -V(xc)+E(xc)   XCENC  =       139.26658691
  PAW double counting   =      3510.96489697    -3517.32974436
  entropy T*S    EENTRO =        -0.00000000
  eigenvalues    EBANDS =      -513.22314021
  atomic energy  EATOM  =      1406.67326350
  Solvation  Ediel_sol  =         0.00000000
  ---------------------------------------------------
  free energy    TOTEN  =      -101.45208515 eV

  energy without entropy =     -101.45208515  energy(sigma->0) =     -101.45208515


--------------------------------------------------------------------------------------------------------




--------------------------------------- Iteration      1(  20)  ---------------------------------------


    POTLOK:  cpu time      1.1753: real time      1.1754
    SETDIJ:  cpu time      0.0029: real time      0.0029
    EDDIAG:  cpu time      0.2224: real time      0.2224
  RMM-DIIS:  cpu time      1.2839: real time      1.3154
    ORTHCH:  cpu time      0.0253: real time      0.0253
       DOS:  cpu time      0.0002: real time      0.0002
    CHARGE:  cpu time      0.3954: real time      0.3954
    MIXING:  cpu time      0.1859: real time      0.1859
    --------------------------------------------
      LOOP:  cpu time      3.2914: real time      3.3230

 eigenvalue-minimisations  :    48
 total energy-change (2. order) :-0.2241685E-03  (-0.3289974E-05)
 number of electron      42.0000008 magnetization 
 augmentation part        1.0219259 magnetization 

 Broyden mixing:
  rms(total) = 0.22533E-03    rms(broyden)= 0.22526E-03
  rms(prec ) = 0.38883E-03
  weight for this iteration     100.00

 eigenvalues of (default mixing * dielectric matrix)
  average eigenvalue GAMMA=   2.1838
  8.7619  5.1311  2.7311  2.4360  1.9091  1.9091  1.3544  1.3544  1.2586  1.2586
  1.0475  0.8131  0.9474  0.9474  0.8966

 Free energy of the ion-electron system (eV)
  ---------------------------------------------------
  alpha Z        PSCENC =         2.15216506
  Ewald energy   TEWEN  =      2239.06040278
  -Hartree energ DENC   =     -3369.00818890
  -exchange      EXHF   =         0.00000000
  -V(xc)+E(xc)   XCENC  =       139.26585914
  PAW double counting   =      3510.78686638    -3517.15130035
  entropy T*S    EENTRO =        -0.00000000
  eigenvalues    EBANDS =      -513.23137693
  atomic energy  EATOM  =      1406.67326350
  Solvation  Ediel_sol  =         0.00000000
  ---------------------------------------------------
  free energy    TOTEN  =      -101.45230932 eV

  energy without entropy =     -101.45230932  energy(sigma->0) =     -101.45230932


--------------------------------------------------------------------------------------------------------




--------------------------------------- Iteration      1(  21)  ---------------------------------------


    POTLOK:  cpu time      1.6473: real time      1.6563
    SETDIJ:  cpu time      0.0058: real time      0.0058
    EDDIAG:  cpu time      0.4194: real time      0.4194
  RMM-DIIS:  cpu time      1.6547: real time      1.6549
    ORTHCH:  cpu time      0.0111: real time      0.0111
       DOS:  cpu time      0.0002: real time      0.0002
    CHARGE:  cpu time      0.2558: real time      0.2558
    MIXING:  cpu time      0.1236: real time      0.1236
    --------------------------------------------
      LOOP:  cpu time      4.1178: real time      4.1271

 eigenvalue-minimisations  :    39
 total energy-change (2. order) :-0.1087575E-03  (-0.1071152E-05)
 number of electron      42.0000008 magnetization 
 augmentation part        1.0219310 magnetization 

 Broyden mixing:
  rms(total) = 0.18532E-03    rms(broyden)= 0.18528E-03
  rms(prec ) = 0.26544E-03
  weight for this iteration     100.00

 eigenvalues of (default mixing * dielectric matrix)
  average eigenvalue GAMMA=   2.2652
  8.9639  5.6533  3.7165  2.5779  2.3109  1.3592  1.3592  1.5612  1.5612  1.3401
  1.3401  0.8121  0.9524  0.9524  0.8914  0.8914

 Free energy of the ion-electron system (eV)
  ---------------------------------------------------
  alpha Z        PSCENC =         2.15216506
  Ewald energy   TEWEN  =      2239.06040278
  -Hartree energ DENC   =     -3368.98281738
  -exchange      EXHF   =         0.00000000
  -V(xc)+E(xc)   XCENC  =       139.26518726
  PAW double counting   =      3510.80275889    -3517.16701827
  entropy T*S    EENTRO =        -0.00000000
  eigenvalues    EBANDS =      -513.25635991
  atomic energy  EATOM  =      1406.67326350
  Solvation  Ediel_sol  =         0.00000000
  ---------------------------------------------------
  free energy    TOTEN  =      -101.45241808 eV

  energy without entropy =     -101.45241808  energy(sigma->0) =     -101.45241808


--------------------------------------------------------------------------------------------------------




--------------------------------------- Iteration      1(  22)  ---------------------------------------


    POTLOK:  cpu time      1.8125: real time      1.8127
    SETDIJ:  cpu time      0.0054: real time      0.0054
    EDDIAG:  cpu time      0.5746: real time      0.5746
  RMM-DIIS:  cpu time      1.9822: real time      1.9823
    ORTHCH:  cpu time      0.0238: real time      0.0238
       DOS:  cpu time      0.0002: real time      0.0002
    CHARGE:  cpu time      0.4185: real time      0.4185
    MIXING:  cpu time      0.2067: real time      0.2067
    --------------------------------------------
      LOOP:  cpu time      5.0239: real time      5.0242

 eigenvalue-minimisations  :    36
 total energy-change (2. order) :-0.4969535E-04  (-0.3427142E-06)
 number of electron      42.0000008 magnetization 
 augmentation part        1.0219275 magnetization 

 Broyden mixing:
  rms(total) = 0.12460E-03    rms(broyden)= 0.12458E-03
  rms(prec ) = 0.16376E-03
  weight for this iteration     100.00

 eigenvalues of (default mixing * dielectric matrix)
  average eigenvalue GAMMA=   2.2360
  8.9285  6.0678  3.8591  2.5013  2.3077  1.3590  1.3590  1.7095  1.5572  1.4417
  1.1682  1.1682  1.0519  0.8135  0.9144  0.9144  0.8908

 Free energy of the ion-electron system (eV)
  ---------------------------------------------------
  alpha Z        PSCENC =         2.15216506
  Ewald energy   TEWEN  =      2239.06040278
  -Hartree energ DENC   =     -3368.99370704
  -exchange      EXHF   =         0.00000000
  -V(xc)+E(xc)   XCENC  =       139.26541640
  PAW double counting   =      3510.57330648    -3516.93774759
  entropy T*S    EENTRO =        -0.00000000
  eigenvalues    EBANDS =      -513.24556737
  atomic energy  EATOM  =      1406.67326350
  Solvation  Ediel_sol  =         0.00000000
  ---------------------------------------------------
  free energy    TOTEN  =      -101.45246777 eV

  energy without entropy =     -101.45246777  energy(sigma->0) =     -101.45246777


--------------------------------------------------------------------------------------------------------




--------------------------------------- Iteration      1(  23)  ---------------------------------------


    POTLOK:  cpu time      2.1340: real time      2.1341
    SETDIJ:  cpu time      0.0049: real time      0.0049
    EDDIAG:  cpu time      0.4935: real time      0.4937
  RMM-DIIS:  cpu time      1.8084: real time      1.8088
    ORTHCH:  cpu time      0.0237: real time      0.0238
       DOS:  cpu time      0.0002: real time      0.0002
    CHARGE:  cpu time      0.3896: real time      0.3896
    MIXING:  cpu time      0.1725: real time      0.1728
    --------------------------------------------
      LOOP:  cpu time      5.0269: real time      5.0279

 eigenvalue-minimisations  :    28
 total energy-change (2. order) :-0.1275088E-04  (-0.8758166E-07)
 number of electron      42.0000008 magnetization 
 augmentation part        1.0219240 magnetization 

 Broyden mixing:
  rms(total) = 0.39622E-04    rms(broyden)= 0.39586E-04
  rms(prec ) = 0.72360E-04
  weight for this iteration     100.00

 eigenvalues of (default mixing * dielectric matrix)
  average eigenvalue GAMMA=   2.3195
  9.1429  6.6184  4.4313  2.9215  2.4686  2.0248  1.7153  1.7153  1.3541  1.3541
  1.2503  1.2503  0.9862  0.9862  0.8130  0.9160  0.9160  0.8867

 Free energy of the ion-electron system (eV)
  ---------------------------------------------------
  alpha Z        PSCENC =         2.15216506
  Ewald energy   TEWEN  =      2239.06040278
  -Hartree energ DENC   =     -3368.98701968
  -exchange      EXHF   =         0.00000000
  -V(xc)+E(xc)   XCENC  =       139.26522176
  PAW double counting   =      3510.64611301    -3517.01049171
  entropy T*S    EENTRO =        -0.00000000
  eigenvalues    EBANDS =      -513.25213524
  atomic energy  EATOM  =      1406.67326350
  Solvation  Ediel_sol  =         0.00000000
  ---------------------------------------------------
  free energy    TOTEN  =      -101.45248052 eV

  energy without entropy =     -101.45248052  energy(sigma->0) =     -101.45248052


--------------------------------------------------------------------------------------------------------




--------------------------------------- Iteration      1(  24)  ---------------------------------------


    POTLOK:  cpu time      2.2285: real time      2.2289
    SETDIJ:  cpu time      0.0064: real time      0.0064
    EDDIAG:  cpu time      0.6669: real time      0.6670
  RMM-DIIS:  cpu time      1.5926: real time      1.5927
    ORTHCH:  cpu time      0.0219: real time      0.0219
       DOS:  cpu time      0.0002: real time      0.0002
    CHARGE:  cpu time      0.3797: real time      0.3797
    MIXING:  cpu time      0.2149: real time      0.2149
    --------------------------------------------
      LOOP:  cpu time      5.1111: real time      5.1116

 eigenvalue-minimisations  :    26
 total energy-change (2. order) :-0.1255334E-04  (-0.5370624E-07)
 number of electron      42.0000008 magnetization 
 augmentation part        1.0219224 magnetization 

 Broyden mixing:
  rms(total) = 0.58701E-04    rms(broyden)= 0.58688E-04
  rms(prec ) = 0.73482E-04
  weight for this iteration     100.00

 eigenvalues of (default mixing * dielectric matrix)
  average eigenvalue GAMMA=   2.2994
  9.2512  6.8403  4.6294  3.0223  2.4882  1.9465  1.9465  1.8392  1.3551  1.3551
  1.2367  1.2367  1.0762  1.0762  0.9294  0.9294  0.8117  0.8596  0.8596

 Free energy of the ion-electron system (eV)
  ---------------------------------------------------
  alpha Z        PSCENC =         2.15216506
  Ewald energy   TEWEN  =      2239.06040278
  -Hartree energ DENC   =     -3368.98403219
  -exchange      EXHF   =         0.00000000
[...]
  average eigenvalue of G=   1.6672
 eigenvalue spectrum of G is  1.6672


--------------------------------------------------------------------------------------------------------


    WAVPRE:  cpu time      1.8025: real time      2.1191
    FEWALD:  cpu time      0.0005: real time      0.0005
    ORTHCH:  cpu time      0.1055: real time      0.1059
     LOOP+:  cpu time     14.9733: real time     21.1977


--------------------------------------- Iteration    108(   1)  ---------------------------------------


    POTLOK:  cpu time      1.0316: real time      1.0332
    SETDIJ:  cpu time      0.0051: real time      0.0136
     EDDAV:  cpu time      2.0716: real time      2.3900
       DOS:  cpu time      0.0002: real time      0.0002
    CHARGE:  cpu time      0.2164: real time      0.4404
    MIXING:  cpu time      0.0552: real time      0.1033
    --------------------------------------------
      LOOP:  cpu time      3.3801: real time      3.9806

 eigenvalue-minimisations  :    66
 total energy-change (2. order) :-0.5734805E-03  (-0.1187667E-02)
 number of electron      42.0000039 magnetization 
 augmentation part        1.0157920 magnetization 

 Broyden mixing:
  rms(total) = 0.25974E-02    rms(broyden)= 0.25906E-02
  rms(prec ) = 0.28033E-02
  weight for this iteration     100.00

 Free energy of the ion-electron system (eV)
  ---------------------------------------------------
  alpha Z        PSCENC =         2.15216506
  Ewald energy   TEWEN  =      2135.39728682
  -Hartree energ DENC   =     -3267.02909821
  -exchange      EXHF   =         0.00000000
  -V(xc)+E(xc)   XCENC  =       138.84720520
  PAW double counting   =      3469.00857279    -3475.35095352
  entropy T*S    EENTRO =        -0.00000000
  eigenvalues    EBANDS =      -511.34609082
  atomic energy  EATOM  =      1406.67326350
  Solvation  Ediel_sol  =         0.00000000
  ---------------------------------------------------
  free energy    TOTEN  =      -101.64764918 eV

  energy without entropy =     -101.64764918  energy(sigma->0) =     -101.64764918


--------------------------------------------------------------------------------------------------------




--------------------------------------- Iteration    108(   2)  ---------------------------------------


    POTLOK:  cpu time      1.8163: real time      2.3082
    SETDIJ:  cpu time      0.0562: real time      0.1472
    EDDIAG:  cpu time      0.3080: real time      0.3858
  RMM-DIIS:  cpu time      0.9832: real time      1.8662
    ORTHCH:  cpu time      0.0064: real time      0.0144
       DOS:  cpu time      0.0001: real time      0.0001
    CHARGE:  cpu time      0.1178: real time      0.2338
    MIXING:  cpu time      0.0720: real time      0.0742
    --------------------------------------------
      LOOP:  cpu time      3.3600: real time      5.0298

 eigenvalue-minimisations  :    58
 total energy-change (2. order) :-0.3864303E-05  (-0.1309907E-04)
 number of electron      42.0000039 magnetization 
 augmentation part        1.0157718 magnetization 

 Broyden mixing:
  rms(total) = 0.15658E-02    rms(broyden)= 0.15653E-02
  rms(prec ) = 0.16936E-02
  weight for this iteration     100.00

 eigenvalues of (default mixing * dielectric matrix)
  average eigenvalue GAMMA=   2.0088
  2.0088

 Free energy of the ion-electron system (eV)
  ---------------------------------------------------
  alpha Z        PSCENC =         2.15216506
  Ewald energy   TEWEN  =      2135.39728682
  -Hartree energ DENC   =     -3267.02782313
  -exchange      EXHF   =         0.00000000
  -V(xc)+E(xc)   XCENC  =       138.84732114
  PAW double counting   =      3468.92675755    -3475.26914477
  entropy T*S    EENTRO =        -0.00000000
  eigenvalues    EBANDS =      -511.34747922
  atomic energy  EATOM  =      1406.67326350
  Solvation  Ediel_sol  =         0.00000000
  ---------------------------------------------------
  free energy    TOTEN  =      -101.64765304 eV

  energy without entropy =     -101.64765304  energy(sigma->0) =     -101.64765304


--------------------------------------------------------------------------------------------------------




--------------------------------------- Iteration    108(   3)  ---------------------------------------


    POTLOK:  cpu time      1.0247: real time      1.5008
    SETDIJ:  cpu time      0.0098: real time      0.0199
    EDDIAG:  cpu time      0.0833: real time      0.1506
  RMM-DIIS:  cpu time      0.4128: real time      0.4912
    ORTHCH:  cpu time      0.0043: real time      0.0043
       DOS:  cpu time      0.0001: real time      0.0001
    --------------------------------------------
      LOOP:  cpu time      1.5349: real time      2.1668

 eigenvalue-minimisations  :    44
 total energy-change (2. order) :-0.1265313E-05  (-0.2858111E-05)
 number of electron      42.0000039 magnetization 
 augmentation part        1.0157718 magnetization 

 Free energy of the ion-electron system (eV)
  ---------------------------------------------------
  alpha Z        PSCENC =         2.15216506
  Ewald energy   TEWEN  =      2135.39728682
  -Hartree energ DENC   =     -3267.02704529
  -exchange      EXHF   =         0.00000000
  -V(xc)+E(xc)   XCENC  =       138.84749067
  PAW double counting   =      3468.85095604    -3475.19328428
  entropy T*S    EENTRO =        -0.00000000
  eigenvalues    EBANDS =      -511.34848683
  atomic energy  EATOM  =      1406.67326350
  Solvation  Ediel_sol  =         0.00000000
  ---------------------------------------------------
  free energy    TOTEN  =      -101.64765431 eV

  energy without entropy =     -101.64765431  energy(sigma->0) =     -101.64765431


--------------------------------------------------------------------------------------------------------




 average (electrostatic) potential at core
  the test charge radii are     0.6991  0.5201  0.7089
  (the norm of the test charge is              1.0000)
       1 -58.9740       2 -58.9504       3 -58.7210       4 -58.7676       5 -59.4172
       6 -59.8391       7 -59.8670       8 -42.0966       9 -42.1561      10 -42.1683
      11 -42.0715      12 -42.0860      13 -42.0853      14 -42.5755      15 -42.6303
      16 -42.7762      17 -73.1185
 
 
 
 E-fermi :  -5.6430     XC(G=0):  -0.6563     alpha+bet : -0.2838

 Fermi energy:        -5.6430430967

 k-point     1 :       0.0000    0.0000    0.0000
  band No.  band energies     occupation 
      1     -22.3717      2.00000
      2     -20.1025      2.00000
      3     -19.8961      2.00000
      4     -18.0655      2.00000
      5     -16.0028      2.00000
      6     -15.4014      2.00000
      7     -13.0047      2.00000
      8     -12.9038      2.00000
      9     -12.1409      2.00000
     10     -11.4474      2.00000
     11     -10.8125      2.00000
     12     -10.1820      2.00000
     13      -9.7591      2.00000
     14      -9.2131      2.00000
     15      -8.7129      2.00000
     16      -8.4922      2.00000
     17      -8.3388      2.00000
     18      -8.1460      2.00000
     19      -7.9681      2.00000
     20      -6.8278      2.00000
     21      -5.8850      2.00000
     22      -2.3749      0.00000
     23      -2.2226      0.00000
     24      -0.6860      0.00000
     25      -0.2379      0.00000
     26      -0.0902      0.00000
     27       0.0774      0.00000
     28       0.3018      0.00000
     29       0.4150      0.00000
     30       0.4986      0.00000


--------------------------------------------------------------------------------------------------------


 soft charge-density along one line, spin component           1
         0         1         2         3         4         5         6         7         8         9
 total charge-density along one line
 
 pseudopotential strength for first ion, spin component:           1
 10.264  13.650   0.001  -0.000  -0.000  -0.001   0.001  -0.001
 13.650  18.153   0.001  -0.000  -0.000  -0.002   0.001  -0.001
  0.001   0.001  -4.391  -0.001   0.003   8.589   0.001  -0.004
 -0.000  -0.000  -0.001  -4.385   0.001   0.001   8.583  -0.001
 -0.000  -0.000   0.003   0.001  -4.391  -0.004  -0.001   8.589
 -0.001  -0.002   8.589   0.001  -0.004 -18.942  -0.001   0.006
  0.001   0.001   0.001   8.583  -0.001  -0.001 -18.938   0.001
 -0.001  -0.001  -0.004  -0.001   8.589   0.006   0.001 -18.940
 total augmentation occupancy for first ion, spin component:           1
  7.862  -3.411  -0.106  -0.078   0.282  -0.012  -0.013   0.048
 -3.411   1.522   0.046   0.047  -0.169   0.004   0.007  -0.027
 -0.106   0.046   1.780   0.041  -0.100   0.166   0.006  -0.016
 -0.078   0.047   0.041   1.179  -0.115   0.006   0.075  -0.016
  0.282  -0.169  -0.100  -0.115   1.805  -0.016  -0.016   0.161
 -0.012   0.004   0.166   0.006  -0.016   0.017   0.001  -0.002
 -0.013   0.007   0.006   0.075  -0.016   0.001   0.005  -0.002
  0.048  -0.027  -0.016  -0.016   0.161  -0.002  -0.002   0.015


------------------------ aborting loop because EDIFF is reached ----------------------------------------


    CHARGE:  cpu time      0.2677: real time      0.3000
    FORLOC:  cpu time      0.3074: real time      0.3075
    FORNL :  cpu time      0.4738: real time      0.4836
    STRESS:  cpu time      1.1110: real time      1.1891
    FORCOR:  cpu time      1.4459: real time      1.4791
    FORHAR:  cpu time      0.5507: real time      0.6469
    MIXING:  cpu time      0.0298: real time      0.0299
    OFIELD:  cpu time      0.0001: real time      0.0001

 ---------------------------------------------------------------------------------------------

         DFTD3 V3.0 Rev 1        
 Edisp (eV)   -0.21704

 E6    (eV) :    -0.0980
 E8    (eV) :    -0.1191
 % E8        : 54.86
    FORVDW:  cpu time      0.0086: real time      0.0087

  FORCE on cell =-STRESS in cart. coord.  units (eV):
  Direction    XX          YY          ZZ          XY          YZ          ZX
  --------------------------------------------------------------------------------------
  Alpha Z     2.15217     2.15217     2.15217
  Ewald     778.51850  1084.18165   272.69597   386.40966   -54.94344  -507.24948
  Hartree   998.55339  1261.86198  1006.61281   254.31348   -64.69641  -404.18498
  E(xc)    -150.93586  -151.07851  -154.55255     0.66246     0.09005    -0.46799
  Local   -2151.63163 -2731.89341 -1735.87307  -626.03463   121.48306   903.02096
  n-local   -62.59682   -59.94979   -54.99174    -1.75786    -0.11730     0.66028
  augment    -0.71863    -0.69801    -0.42198     0.01022    -0.00933     0.04098
  Kinetic   584.87714   593.67143   663.20968   -13.57975    -1.84736     8.03025
  Fock        0.00000     0.00000     0.00000     0.00000     0.00000     0.00000
  vdW        -0.02499    -0.03455    -0.17294    -0.01311     0.01677     0.07185
  -------------------------------------------------------------------------------------
  Total      -1.80673    -1.78705    -1.34166     0.01048    -0.02396    -0.07812
  in kB      -0.79223    -0.78360    -0.58830     0.00459    -0.01051    -0.03425
  external pressure =       -0.72 kB  Pullay stress =        0.00 kB


 VOLUME and BASIS-vectors are now :
 -----------------------------------------------------------------------------
  energy-cutoff  :      400.00
  volume of cell :     3653.87
      direct lattice vectors                 reciprocal lattice vectors
    15.402250290  0.000000000  0.000000000     0.064925578  0.000000000  0.000000000
     0.000000000 15.402250290  0.000000000     0.000000000  0.064925578  0.000000000
     0.000000000  0.000000000 15.402250290     0.000000000  0.000000000  0.064925578

  length of vectors
    15.402250290 15.402250290 15.402250290     0.064925578  0.064925578  0.064925578


 FORCES acting on ions
    electron-ion (+dipol)            ewald-force                    non-local-force                 convergence-correction
 -----------------------------------------------------------------------------------------------
   0.120E+03 0.667E+02 -.671E+02   -.121E+03 -.671E+02 0.673E+02   0.251E+00 0.408E+00 -.185E+00   0.951E-03 0.245E-04 0.904E-03
   0.125E+03 -.509E+02 -.730E+02   -.125E+03 0.514E+02 0.732E+02   0.238E+00 -.498E+00 -.239E+00   0.813E-03 0.143E-03 0.842E-03
   -.573E+02 -.136E+03 -.583E+02   0.580E+02 0.137E+03 0.583E+02   -.730E+00 -.532E+00 0.178E-02   0.691E-03 -.101E-03 0.677E-03
   -.721E+02 0.147E+03 -.411E+02   0.727E+02 -.147E+03 0.412E+02   -.632E+00 0.393E+00 -.222E-01   0.887E-03 0.421E-03 0.905E-03
   -.459E+01 0.148E+03 0.871E+02   0.443E+01 -.150E+03 -.873E+02   0.154E+00 0.192E+01 0.123E+00   -.143E-02 0.154E-02 -.162E-02
   0.590E+02 -.491E+02 0.811E+02   -.634E+02 0.471E+02 -.811E+02   0.445E+01 0.198E+01 -.949E-02   -.131E-02 -.323E-03 -.145E-02
   0.556E+01 -.616E+01 0.543E+02   -.721E+01 0.455E+01 -.544E+02   0.166E+01 0.161E+01 0.684E-01   -.991E-04 0.104E-03 -.978E-03
   0.689E+02 0.372E+02 -.166E+02   -.739E+02 -.398E+02 0.173E+02   0.501E+01 0.258E+01 -.721E+00   0.809E-04 -.711E-04 0.166E-03
   -.644E+02 0.680E+01 -.104E+02   0.696E+02 -.467E+01 0.974E+01   -.525E+01 -.214E+01 0.694E+00   0.936E-04 0.826E-04 0.196E-03
   0.564E-01 0.759E+02 -.513E+01   -.543E+00 -.816E+02 0.491E+01   0.480E+00 0.570E+01 0.278E+00   0.227E-03 0.859E-04 0.416E-04
   0.705E+02 -.330E+02 -.194E+02   -.756E+02 0.354E+02 0.203E+02   0.508E+01 -.239E+01 -.901E+00   0.698E-04 0.613E-04 0.163E-03
   -.612E+02 -.318E+01 -.148E+02   0.666E+02 0.130E+01 0.140E+02   -.534E+01 0.189E+01 0.867E+00   0.481E-04 -.193E-04 0.136E-03
   0.519E+01 -.749E+02 -.118E+02   -.583E+01 0.806E+02 0.118E+02   0.629E+00 -.571E+01 -.171E-01   0.160E-03 -.653E-04 0.257E-05
   0.493E+02 0.486E+02 0.207E+02   -.542E+02 -.518E+02 -.205E+02   0.494E+01 0.315E+01 -.270E+00   -.213E-03 0.201E-03 -.309E-03
   -.540E+02 0.494E+02 0.186E+02   0.590E+02 -.523E+02 -.190E+02   -.502E+01 0.289E+01 0.382E+00   -.202E-03 0.888E-04 -.287E-03
   0.619E+02 -.370E+02 0.178E+02   -.669E+02 0.398E+02 -.173E+02   0.508E+01 -.277E+01 -.587E+00   0.181E-03 -.198E-03 -.282E-03
   -.231E+03 -.173E+03 0.386E+02   0.263E+03 0.197E+03 -.386E+02   -.324E+02 -.241E+02 -.239E-01   0.101E-02 0.771E-03 -.907E-03
 -----------------------------------------------------------------------------------------------
   0.214E+02 0.156E+02 0.566E+00   0.000E+00 -.284E-13 0.426E-13   -.214E+02 -.156E+02 -.562E+00   0.196E-02 0.274E-02 -.180E-02
 
 
 POSITION                                       TOTAL-FORCE (eV/Angst)
 -----------------------------------------------------------------------------------
      5.19531      6.76037      8.91481         0.001064     -0.001619      0.011907
      5.17293      8.22100      8.95620         0.000047     -0.000509      0.010544
      6.22052      9.04561      8.76881        -0.000444      0.004518      0.031882
      6.26883      5.97915      8.69011         0.001304     -0.006756      0.034174
      6.88446      6.78395      5.82684         0.000260      0.003733     -0.041205
      6.84110      8.12640      5.87705        -0.000366      0.001926     -0.045572
      8.00483      8.94566      5.85883         0.007160      0.002893     -0.021128
      4.22532      6.27149      9.05229        -0.001998      0.001293      0.003294
      7.27096      6.39134      8.55768         0.004475     -0.012717      0.040188
      6.17644      4.89379      8.63629        -0.003943     -0.006756      0.049165
      4.18973      8.67114      9.12783        -0.003305     -0.003717      0.000426
      7.23431      8.67646      8.60319         0.003397      0.011588      0.039345
      6.09697     10.12914      8.77284        -0.007151      0.003361      0.046220
      5.96700      6.19951      5.86767         0.000345      0.003603     -0.063204
      7.82935      6.24329      5.75631         0.000656      0.002927     -0.016836
      5.89111      8.65555      5.97659         0.000942      0.004796     -0.074923
      8.94598      9.64245      5.85996        -0.002445     -0.008560     -0.004278
 -----------------------------------------------------------------------------------
    total drift:                               -0.001094     -0.005599      0.002151


--------------------------------------------------------------------------------------------------------



  FREE ENERGIE OF THE ION-ELECTRON SYSTEM (eV)
  ---------------------------------------------------
  free  energy   TOTEN  =      -101.86469210 eV

  energy  without entropy=     -101.86469210  energy(sigma->0) =     -101.86469210
 
 d Force = 0.4848346E-03[ 0.480E-03, 0.489E-03]  d Energy = 0.4865305E-03-0.170E-05
 d Force = 0.4874978E+00[ 0.487E+00, 0.488E+00]  d Ewald  = 0.4874977E+00 0.503E-07


--------------------------------------------------------------------------------------------------------


    POTLOK:  cpu time      1.1566: real time      1.7922


--------------------------------------------------------------------------------------------------------


 NEB: the previous image is higher in energy: F
 NEB: the next image is higher in energy    : F
 NEB: image is at an extrema
 NEB: diff energy (min, max):     0.006651  101.864692

 NEB: Tangent
 ----------------------------------------------
     -0.07492      0.01280      0.00540
     -0.03008      0.01187      0.01612
     -0.00079     -0.02336      0.01280
     -0.09601     -0.01258     -0.01584
      0.27753     -0.02136      0.27553
      0.17512     -0.01942      0.28928
      0.11638      0.07982      0.17522
     -0.09045      0.03775     -0.00734
     -0.08477     -0.03478     -0.00406
     -0.12507     -0.01007     -0.05795
     -0.01797      0.04502      0.00648
     -0.01132     -0.06234      0.02706
      0.03688     -0.01709     -0.01480
      0.31794     -0.09434      0.37193
      0.32355      0.05115      0.17617
      0.13085     -0.09653      0.40695
      0.06576      0.16586      0.08421

 NEB: forces: par spring, perp REAL, dneb     0.012689    0.130519    0.000000
 NEB: distance to prev, next image, angle between     1.188813    1.186275  123.972727
 NEB: projections on to tangent (spring, REAL)    -0.012689   -0.089537

 stress matrix after NEB project (eV)
     -1.80673      0.01048     -0.07812
      0.01048     -1.78705     -0.02396
     -0.07812     -0.02396     -1.34166
  FORCES: max atom, RMS     0.047323    0.031805
  FORCE total and by dimension    0.131135    0.045083
  Stress total and by dimension    2.876013    1.806733
 Quasi-Newton relaxation of ions (Broydens 2nd method)
  g(Force)  = 0.386E-03   g(Stress)= 0.000E+00

 retain information from N=  2 steps
 eigenvalues of (default step * inverse Hessian matrix)
  average eigenvalue of G=   4.3533
 eigenvalue spectrum of G is  4.3533  4.3533


--------------------------------------------------------------------------------------------------------


  
 reached required accuracy - stopping structural energy minimisation
     LOOP+:  cpu time     14.7102: real time     18.7528
    4ORBIT:  cpu time      0.0000: real time      0.0000

 total amount of memory used by VASP MPI-rank0   277942. kBytes
=======================================================================

   base      :      30000. kBytes
   nonl-proj :      15437. kBytes
   fftplans  :      71598. kBytes
   grid      :     152883. kBytes
   one-center:         26. kBytes
   wavefun   :       7998. kBytes
 
  
  
 General timing and accounting informations for this job:
 ========================================================
  
                  Total CPU time used (sec):     2234.057
                            User time (sec):     2062.835
                          System time (sec):      171.222
                         Elapsed time (sec):     3151.787
  
                   Maximum memory used (kb):     1156784.
                   Average memory used (kb):          N/A
  
                          Minor page faults:     14736174
                          Major page faults:          298
                 Voluntary context switches:         1290
