<?xml version="1.0" encoding="ISO-8859-1"?>
<modeling>
 <generator>
  <i name="program" type="string">vasp </i>
  <i name="version" type="string">6.3.2  </i>
  <i name="subversion" type="string">27Jun22 (build Oct 05 2023 17:59:42) gamma-only                       parallel </i>
  <i name="platform" type="string">LinuxIFC </i>
  <i name="date" type="string">2024 04 05 </i>
  <i name="time" type="string">18:28:44 </i>
 </generator>
 <incar>
  <i type="string" name="PREC">NORMAL</i>
  <i type="string" name="ALGO">Fast</i>
  <i type="int" name="ISPIN">     1</i>
  <i type="int" name="IBRION">     1</i>
  <i name="EDIFF">      0.00001000</i>
  <i name="EDIFFG">     -0.05000000</i>
  <i type="int" name="NSW">  5000</i>
  <i name="ENCUT">    400.00000000</i>
  <i name="POTIM">      0.10000000</i>
  <i type="int" name="ISMEAR">     0</i>
  <i name="SIGMA">      0.05000000</i>
  <i type="logical" name="LWAVE"> F  </i>
  <i type="logical" name="LCHARG"> F  </i>
  <i type="string" name="GGA">PE</i>
  <i type="int" name="IVDW">    11</i>
  <i name="SPRING">     -5.00000000</i>
 </incar>
 <primitive_cell>
  <structure name="primitive_cell" >
   <crystal>
    <varray name="basis" >
     <v>      15.40225029       0.00000000       0.00000000 </v>
     <v>       0.00000000      15.40225029       0.00000000 </v>
     <v>       0.00000000       0.00000000      15.40225029 </v>
    </varray>
    <i name="volume">   3653.86527022 </i>
    <varray name="rec_basis" >
     <v>       0.06492558       0.00000000       0.00000000 </v>
     <v>       0.00000000       0.06492558       0.00000000 </v>
     <v>       0.00000000       0.00000000       0.06492558 </v>
    </varray>
   </crystal>
   <varray name="positions" >
    <v>       0.33794731       0.43888269       0.57664537 </v>
    <v>       0.33568234       0.53309719       0.57912156 </v>
    <v>       0.40381729       0.58497369       0.56248302 </v>
    <v>       0.40899409       0.39153510       0.55825681 </v>
    <v>       0.44525107       0.44037195       0.38783310 </v>
    <v>       0.44385560       0.52744710       0.39255656 </v>
    <v>       0.51990641       0.57919244       0.38889734 </v>
    <v>       0.27566295       0.40639116       0.58544788 </v>
    <v>       0.47124990       0.42361153       0.55050685 </v>
    <v>       0.40741181       0.32150006       0.54993480 </v>
    <v>       0.27211010       0.56216004       0.58999082 </v>
    <v>       0.46807479       0.55849748       0.55031634 </v>
    <v>       0.39836468       0.65513545       0.55781240 </v>
    <v>       0.38587349       0.40308582       0.39366988 </v>
    <v>       0.50547701       0.40452575       0.38013839 </v>
    <v>       0.38372963       0.56278865       0.40285837 </v>
    <v>       0.58150905       0.62359758       0.38712288 </v>
   </varray>
  </structure>
  <varray name="primitive_index" >
   <v type="int" >        1 </v>
   <v type="int" >        2 </v>
   <v type="int" >        3 </v>
   <v type="int" >        4 </v>
   <v type="int" >        5 </v>
   <v type="int" >        6 </v>
   <v type="int" >        7 </v>
   <v type="int" >        8 </v>
   <v type="int" >        9 </v>
   <v type="int" >       10 </v>
   <v type="int" >       11 </v>
   <v type="int" >       12 </v>
   <v type="int" >       13 </v>
   <v type="int" >       14 </v>
   <v type="int" >       15 </v>
   <v type="int" >       16 </v>
   <v type="int" >       17 </v>
  </varray>
 </primitive_cell>
 <kpoints>
  <generation param="Monkhorst-Pack">
   <v type="int" name="divisions">       1        1        1 </v>
   <v name="usershift">      0.00000000       0.00000000       0.00000000 </v>
   <v name="genvec1">      1.00000000       0.00000000       0.00000000 </v>
   <v name="genvec2">      0.00000000       1.00000000       0.00000000 </v>
   <v name="genvec3">      0.00000000       0.00000000       1.00000000 </v>
   <v name="shift">      0.00000000       0.00000000       0.00000000 </v>
  </generation>
  <varray name="kpointlist" >
   <v>       0.00000000       0.00000000       0.00000000 </v>
  </varray>
  <varray name="weights" >
   <v>       1.00000000 </v>
  </varray>
 </kpoints>
 <parameters>
  <separator name="general" >
   <i type="string" name="SYSTEM">unknown system</i>
   <i type="logical" name="LCOMPAT"> F  </i>
  </separator>
  <separator name="electronic" >
   <i type="string" name="PREC">normal</i>
   <i name="ENMAX">    400.00000000</i>
   <i name="ENAUG">    644.87300000</i>
   <i name="EDIFF">      0.00001000</i>
   <i type="int" name="IALGO">    68</i>
   <i type="int" name="IWAVPR">    11</i>
   <i type="int" name="NBANDS">    30</i>
   <i type="int" name="NBANDSLOW">    -1</i>
   <i type="int" name="NBANDSHIGH">    -1</i>
   <i name="NELECT">     42.00000000</i>
   <i type="int" name="TURBO">     0</i>
   <i type="int" name="IRESTART">     0</i>
   <i type="int" name="NREBOOT">     0</i>
   <i type="int" name="NMIN">     0</i>
   <i name="EREF">      0.00000000</i>
   <separator name="electronic smearing" >
    <i type="int" name="ISMEAR">     0</i>
    <i name="SIGMA">      0.05000000</i>
    <i name="KSPACING">      0.50000000</i>
    <i type="logical" name="KGAMMA"> T  </i>
    <i type="logical" name="KBLOWUP"> T  </i>
   </separator>
   <separator name="electronic projectors" >
    <i type="logical" name="LREAL"> F  </i>
    <v name="ROPT">      0.00000000      0.00000000      0.00000000</v>
    <i type="int" name="LMAXPAW">  -100</i>
    <i type="int" name="LMAXMIX">     2</i>
    <i type="logical" name="NLSPLINE"> F  </i>
   </separator>
   <separator name="electronic startup" >
    <i type="int" name="ISTART">     0</i>
    <i type="int" name="ICHARG">     2</i>
    <i type="int" name="INIWAV">     1</i>
   </separator>
   <separator name="electronic spin" >
    <i type="int" name="ISPIN">     1</i>
    <i type="logical" name="LNONCOLLINEAR"> F  </i>
    <v name="MAGMOM">      1.00000000      1.00000000      1.00000000      1.00000000      1.00000000      1.00000000      1.00000000      1.00000000      1.00000000      1.00000000      1.00000000      1.00000000      1.00000000      1.00000000      1.00000000      1.00000000      1.00000000</v>
    <i name="NUPDOWN">     -1.00000000</i>
    <i type="logical" name="LSORBIT"> F  </i>
    <v name="SAXIS">      0.00000000      0.00000000      1.00000000</v>
    <i type="logical" name="LSPIRAL"> F  </i>
    <v name="QSPIRAL">      0.00000000      0.00000000      0.00000000</v>
    <i type="logical" name="LZEROZ"> F  </i>
   </separator>
   <separator name="electronic exchange-correlation" >
    <i type="logical" name="LASPH"> F  </i>
    <i type="logical" name="LMETAGGA"> F  </i>
   </separator>
   <separator name="electronic convergence" >
    <i type="int" name="NELM">    60</i>
    <i type="int" name="NELMDL">    -5</i>
    <i type="int" name="NELMIN">     2</i>
    <i name="ENINI">    400.00000000</i>
    <separator name="electronic convergence detail" >
     <i type="logical" name="LDIAG"> T  </i>
     <i type="logical" name="LSUBROT"> F  </i>
     <i name="WEIMIN">      0.00100000</i>
     <i name="EBREAK">      0.00000008</i>
     <i name="DEPER">      0.30000000</i>
     <i type="int" name="NRMM">     4</i>
     <i name="TIME">      0.40000000</i>
    </separator>
   </separator>
   <separator name="electronic mixer" >
    <i name="AMIX">      0.40000000</i>
    <i name="BMIX">      1.00000000</i>
    <i name="AMIN">      0.10000000</i>
    <i name="AMIX_MAG">      1.60000000</i>
    <i name="BMIX_MAG">      1.00000000</i>
    <separator name="electronic mixer details" >
     <i type="int" name="IMIX">     4</i>
     <i type="logical" name="MIXFIRST"> F  </i>
     <i type="int" name="MAXMIX">   -45</i>
     <i name="WC">    100.00000000</i>
     <i type="int" name="INIMIX">     1</i>
     <i type="int" name="MIXPRE">     1</i>
     <i type="int" name="MREMOVE">     5</i>
    </separator>
   </separator>
   <separator name="electronic dipolcorrection" >
    <i type="logical" name="LDIPOL"> F  </i>
    <i type="logical" name="LMONO"> F  </i>
    <i type="int" name="IDIPOL">     0</i>
    <i name="EPSILON">      1.00000000</i>
    <v name="DIPOL">   -100.00000000   -100.00000000   -100.00000000</v>
    <i name="EFIELD">      0.00000000</i>
   </separator>
  </separator>
  <separator name="grids" >
   <i type="int" name="NGX">    80</i>
   <i type="int" name="NGY">    80</i>
   <i type="int" name="NGZ">    80</i>
   <i type="int" name="NGXF">   160</i>
   <i type="int" name="NGYF">   160</i>
   <i type="int" name="NGZF">   160</i>
   <i type="logical" name="ADDGRID"> F  </i>
  </separator>
  <separator name="ionic" >
   <i type="int" name="NSW">  5000</i>
   <i type="int" name="IBRION">     1</i>
   <i type="int" name="MDALGO">     0</i>
   <i type="int" name="ISIF">     2</i>
   <i name="PSTRESS">      0.00000000</i>
   <i name="EDIFFG">     -0.05000000</i>
   <i type="int" name="NFREE">     0</i>
   <i name="POTIM">      0.10000000</i>
   <i name="SMASS">     -3.00000000</i>
   <i name="SCALEE">      1.00000000</i>
  </separator>
  <separator name="ionic md" >
   <i name="TEBEG">      0.00010000</i>
   <i name="TEEND">      0.00010000</i>
   <i type="int" name="NBLOCK">     1</i>
   <i type="int" name="KBLOCK">  5000</i>
   <i type="int" name="NPACO">   256</i>
   <i name="APACO">     10.00000000</i>
  </separator>
  <separator name="symmetry" >
   <i type="int" name="ISYM">     2</i>
   <i name="SYMPREC">      0.00001000</i>
  </separator>
  <separator name="dos" >
   <i type="int" name="LORBIT">     0</i>
   <v name="RWIGS">     -1.00000000     -1.00000000     -1.00000000</v>
   <i type="int" name="NEDOS">   301</i>
   <i name="EMIN">     10.00000000</i>
   <i name="EMAX">    -10.00000000</i>
   <i name="EFERMI">      0.00000000</i>
  </separator>
  <separator name="writing" >
   <i type="int" name="NWRITE">     2</i>
   <i type="logical" name="LWAVE"> F  </i>
   <i type="logical" name="LDOWNSAMPLE"> F  </i>
   <i type="logical" name="LCHARG"> F  </i>
   <i type="logical" name="LPARD"> F  </i>
   <i type="logical" name="LVTOT"> F  </i>
   <i type="logical" name="LVHAR"> F  </i>
   <i type="logical" name="LELF"> F  </i>
   <i type="logical" name="LOPTICS"> F  </i>
   <v name="STM">      0.00000000      0.00000000      0.00000000      0.00000000      0.00000000      0.00000000      0.00000000</v>
  </separator>
  <separator name="performance" >
   <i type="int" name="NPAR">     2</i>
   <i type="int" name="NSIM">     4</i>
   <i type="int" name="NBLK">    -1</i>
   <i type="logical" name="LPLANE"> T  </i>
   <i type="logical" name="LSCALAPACK"> T  </i>
   <i type="logical" name="LSCAAWARE"> F  </i>
   <i type="logical" name="LSCALU"> F  </i>
   <i type="logical" name="LASYNC"> F  </i>
   <i type="logical" name="LORBITALREAL"> F  </i>
  </separator>
  <separator name="miscellaneous" >
   <i type="int" name="IDIOT">     3</i>
   <i type="int" name="PHON_NSTRUCT">    -1</i>
   <i type="logical" name="LMUSIC"> F  </i>
   <v name="POMASS">     12.01100000      1.00000000     14.00100000</v>
   <v name="DARWINR">      0.00000000      0.00000000      0.00000000</v>
   <v name="DARWINV">      1.00000000      1.00000000      1.00000000</v>
   <i type="logical" name="LCORR"> T  </i>
  </separator>
  <i type="logical" name="GGA_COMPAT"> T  </i>
  <i type="logical" name="LBERRY"> F  </i>
  <i type="int" name="ICORELEVEL">     0</i>
  <i type="logical" name="LDAU"> F  </i>
  <i type="int" name="I_CONSTRAINED_M">     0</i>
  <separator name="electronic exchange-correlation" >
   <i type="string" name="GGA">PE</i>
   <i type="int" name="VOSKOWN">     0</i>
   <i type="logical" name="LHFCALC"> F  </i>
   <i type="string" name="PRECFOCK"></i>
   <i type="logical" name="LSYMGRAD"> F  </i>
   <i type="logical" name="LHFONE"> F  </i>
   <i type="logical" name="LRHFCALC"> F  </i>
   <i type="logical" name="LTHOMAS"> F  </i>
   <i type="logical" name="LMODELHF"> F  </i>
   <i type="logical" name="LFOCKACE"> F  </i>
   <i name="ENCUT4O">     -1.00000000</i>
   <i type="int" name="EXXOEP">     0</i>
   <i type="int" name="FOURORBIT">     0</i>
   <i name="AEXX">      0.00000000</i>
   <i name="HFALPHA">      0.00000000</i>
   <i name="MCALPHA">      0.00000000</i>
   <i name="ALDAX">      1.00000000</i>
   <i name="AGGAX">      1.00000000</i>
   <i name="ALDAC">      1.00000000</i>
   <i name="AGGAC">      1.00000000</i>
   <i type="int" name="NKREDX">     1</i>
   <i type="int" name="NKREDY">     1</i>
   <i type="int" name="NKREDZ">     1</i>
   <i type="logical" name="SHIFTRED"> F  </i>
   <i type="logical" name="ODDONLY"> F  </i>
   <i type="logical" name="EVENONLY"> F  </i>
   <i type="int" name="LMAXFOCK">     0</i>
   <i type="int" name="NMAXFOCKAE">     0</i>
   <i type="logical" name="LFOCKAEDFT"> F  </i>
   <i name="HFSCREEN">      0.00000000</i>
   <i name="HFSCREENC">      0.00000000</i>
   <i type="int" name="NBANDSGWLOW">     0</i>
  </separator>
  <separator name="vdW DFT" >
   <i type="logical" name="LUSE_VDW"> F  </i>
   <i name="Zab_VDW">     -0.84910000</i>
   <i name="PARAM1">      0.12340000</i>
   <i name="PARAM2">      1.00000000</i>
   <i name="PARAM3">      0.00000000</i>
  </separator>
  <separator name="model GW" >
   <i type="int" name="MODEL_GW">     0</i>
   <i name="MODEL_EPS0">    128.95995071</i>
   <i name="MODEL_ALPHA">      1.00000000</i>
  </separator>
  <separator name="linear response parameters" >
   <i type="logical" name="LEPSILON"> F  </i>
   <i type="logical" name="LRPA"> F  </i>
   <i type="logical" name="LNABLA"> F  </i>
   <i type="logical" name="LVEL"> F  </i>
   <i name="CSHIFT">      0.10000000</i>
   <i name="OMEGAMAX">     -1.00000000</i>
   <i name="DEG_THRESHOLD">      0.00200000</i>
   <i name="RTIME">     -0.10000000</i>
   <i name="WPLASMAI">      0.00000000</i>
   <v name="DFIELD">      0.00000000      0.00000000      0.00000000</v>
   <v name="WPLASMA">      0.00000000      0.00000000      0.00000000      0.00000000      0.00000000      0.00000000      0.00000000      0.00000000      0.00000000</v>
  </separator>
  <separator name="orbital magnetization" >
   <i type="logical" name="NUCIND"> F  </i>
   <v name="MAGPOS">      0.00000000      0.00000000      0.00000000</v>
   <i type="logical" name="LNICSALL"> T  </i>
   <i type="logical" name="ORBITALMAG"> F  </i>
   <i type="logical" name="LMAGBLOCH"> F  </i>
   <i type="logical" name="LCHIMAG"> F  </i>
   <i type="logical" name="LGAUGE"> T  </i>
   <i type="int" name="MAGATOM">     0</i>
   <v name="MAGDIPOL">      0.00000000      0.00000000      0.00000000</v>
   <v name="AVECCONST">      0.00000000      0.00000000      0.00000000</v>
  </separator>
  <separator name="response functions" >
   <i type="logical" name="LFINITE_TEMPERATURE"> F  </i>
   <i type="logical" name="LADDER"> F  </i>
   <i type="logical" name="LRPAFORCE"> F  </i>
   <i type="logical" name="LFXC"> F  </i>
   <i type="logical" name="LHARTREE"> T  </i>
   <i type="int" name="IBSE">     0</i>
   <v type="int" name="KPOINT">    -1     0     0     0</v>
   <i type="logical" name="LTCTC"> F  </i>
   <i type="logical" name="LTCTE"> F  </i>
   <i type="logical" name="LTETE"> F  </i>
   <i type="logical" name="LTRIPLET"> F  </i>
   <i type="logical" name="LFXCEPS"> F  </i>
   <i type="logical" name="LFXHEG"> F  </i>
   <i type="int" name="NATURALO">     2</i>
   <i type="logical" name="LHOLEGF"> F  </i>
   <i type="logical" name="L2ORDER"> F  </i>
   <i type="logical" name="LDMP1"> F  </i>
   <i type="logical" name="LMP2LT"> F  </i>
   <i type="logical" name="LSMP2LT"> F  </i>
   <i type="logical" name="LGWLF"> F  </i>
   <i name="ENCUTGW">     -2.00000000</i>
   <i name="ENCUTGWSOFT">     -2.00000000</i>
   <i name="ENCUTLF">     -1.00000000</i>
   <i type="logical" name="LESF_SPLINES"> F  </i>
   <i type="int" name="LMAXMP2">    -1</i>
   <i name="SCISSOR">      0.00000000</i>
   <i type="int" name="NOMEGA">     0</i>
   <i type="int" name="NOMEGAR">     0</i>
   <i type="int" name="NBANDSGW">    -1</i>
   <i type="int" name="NBANDSO">    -1</i>
   <i type="int" name="NBANDSV">    -1</i>
   <i type="int" name="NELMGW">     1</i>
   <i type="int" name="NELMHF">     1</i>
   <i type="int" name="DIM">     3</i>
   <i type="int" name="IESPILON">     4</i>
   <i type="int" name="ANTIRES">     0</i>
   <i name="OMEGAMAX">    -30.00000000</i>
   <i name="OMEGAMIN">    -30.00000000</i>
   <i name="OMEGATL">   -200.00000000</i>
   <i type="int" name="OMEGAGRID">     0</i>
   <i name="CSHIFT">     -0.10000000</i>
   <i type="logical" name="LSELFENERGY"> F  </i>
   <i type="logical" name="LSPECTRAL"> F  </i>
   <i type="logical" name="LSPECTRALGW"> F  </i>
   <i type="logical" name="LSINGLES"> F  </i>
   <i type="logical" name="LFERMIGW"> F  </i>
   <i type="logical" name="ODDONLYGW"> F  </i>
   <i type="logical" name="EVENONLYGW"> F  </i>
   <i type="int" name="NKREDLFX">     1</i>
   <i type="int" name="NKREDLFY">     1</i>
   <i type="int" name="NKREDLFZ">     1</i>
   <i type="int" name="MAXMEM">  2800</i>
   <i type="int" name="TELESCOPE">     0</i>
   <i type="int" name="NTAUPAR">    -1</i>
   <i type="int" name="NOMEGAPAR">    -1</i>
   <i name="DAMP_NEWTON">      0.80000001</i>
   <i name="LAMBDA">      1.00000000</i>
  </separator>
  <separator name="External order field" >
   <i name="OFIELD_KAPPA">      0.00000000</i>
   <v name="OFIELD_K">      0.00000000      0.00000000      0.00000000</v>
   <i name="OFIELD_Q6_NEAR">      0.00000000</i>
   <i name="OFIELD_Q6_FAR">      0.00000000</i>
   <i name="OFIELD_A">      0.00000000</i>
  </separator>
  <separator name="optional k-points parameters" >
   <i type="int" name="KPOINTS_OPT_MODE">     1</i>
   <i type="logical" name="LKPOINTS_OPT"> F  </i>
  </separator>
 </parameters>
 <atominfo>
  <atoms>      17 </atoms>
  <types>       3 </types>
  <array name="atoms" >
   <dimension dim="1">ion</dimension>
   <field type="string">element</field>
   <field type="int">atomtype</field>
   <set>
    <rc><c>C </c><c>   1</c></rc>
    <rc><c>C </c><c>   1</c></rc>
    <rc><c>C </c><c>   1</c></rc>
    <rc><c>C </c><c>   1</c></rc>
    <rc><c>C </c><c>   1</c></rc>
    <rc><c>C </c><c>   1</c></rc>
    <rc><c>C </c><c>   1</c></rc>
    <rc><c>H </c><c>   2</c></rc>
    <rc><c>H </c><c>   2</c></rc>
    <rc><c>H </c><c>   2</c></rc>
    <rc><c>H </c><c>   2</c></rc>
    <rc><c>H </c><c>   2</c></rc>
    <rc><c>H </c><c>   2</c></rc>
    <rc><c>H </c><c>   2</c></rc>
    <rc><c>H </c><c>   2</c></rc>
    <rc><c>H </c><c>   2</c></rc>
    <rc><c>N </c><c>   3</c></rc>
   </set>
  </array>
  <array name="atomtypes" >
   <dimension dim="1">type</dimension>
   <field type="int">atomspertype</field>
   <field type="string">element</field>
   <field>mass</field>
   <field>valence</field>
   <field type="string">pseudopotential</field>
   <set>
    <rc><c>   7</c><c>C </c><c>     12.01100000</c><c>      4.00000000</c><c>  PAW_PBE C 08Apr2002                   </c></rc>
    <rc><c>   9</c><c>H </c><c>      1.00000000</c><c>      1.00000000</c><c>  PAW_PBE H 15Jun2001                   </c></rc>
    <rc><c>   1</c><c>N </c><c>     14.00100000</c><c>      5.00000000</c><c>  PAW_PBE N 08Apr2002                   </c></rc>
   </set>
  </array>
 </atominfo>
 <structure name="initialpos" >
  <crystal>
   <varray name="basis" >
    <v>      15.40225029       0.00000000       0.00000000 </v>
    <v>       0.00000000      15.40225029       0.00000000 </v>
    <v>       0.00000000       0.00000000      15.40225029 </v>
   </varray>
   <i name="volume">   3653.86527022 </i>
   <varray name="rec_basis" >
    <v>       0.06492558       0.00000000       0.00000000 </v>
    <v>       0.00000000       0.06492558       0.00000000 </v>
    <v>       0.00000000       0.00000000       0.06492558 </v>
   </varray>
  </crystal>
  <varray name="positions" >
   <v>       0.33794731       0.43888269       0.57664537 </v>
   <v>       0.33568234       0.53309719       0.57912156 </v>
   <v>       0.40381729       0.58497369       0.56248302 </v>
   <v>       0.40899409       0.39153510       0.55825681 </v>
   <v>       0.44525107       0.44037195       0.38783310 </v>
   <v>       0.44385560       0.52744710       0.39255656 </v>
   <v>       0.51990641       0.57919244       0.38889734 </v>
   <v>       0.27566295       0.40639116       0.58544788 </v>
   <v>       0.47124990       0.42361153       0.55050685 </v>
   <v>       0.40741181       0.32150006       0.54993480 </v>
   <v>       0.27211010       0.56216004       0.58999082 </v>
   <v>       0.46807479       0.55849748       0.55031634 </v>
   <v>       0.39836468       0.65513545       0.55781240 </v>
   <v>       0.38587349       0.40308582       0.39366988 </v>
   <v>       0.50547701       0.40452575       0.38013839 </v>
   <v>       0.38372963       0.56278865       0.40285837 </v>
   <v>       0.58150905       0.62359758       0.38712288 </v>
  </varray>
 </structure>
 <calculation>
  <scstep>
   <time name="dav">    3.57    3.57</time>
   <time name="total">    4.97    4.98</time>
   <energy>
    <i name="alphaZ">      2.15216506 </i>
    <i name="ewald">   2239.06040278 </i>
    <i name="hartreedc">  -3181.77189344 </i>
    <i name="XCdc">    129.65004930 </i>
    <i name="pawpsdc">    983.79330320 </i>
    <i name="pawaedc">   -989.05002801 </i>
    <i name="eentropy">     -0.00002136 </i>
    <i name="bandstr">   -262.11749029 </i>
    <i name="atom">   1406.67326350 </i>
    <i name="e_fr_energy">    328.38975073 </i>
    <i name="e_wo_entrp">    328.38977209 </i>
    <i name="e_0_energy">    328.38976141 </i>
   </energy>
  </scstep>
  <scstep>
   <time name="dav">    4.41    4.41</time>
   <time name="total">    4.41    4.41</time>
   <energy>
    <i name="e_fr_energy">     59.85796703 </i>
    <i name="e_wo_entrp">     59.85796703 </i>
    <i name="e_0_energy">     59.85796703 </i>
   </energy>
  </scstep>
  <scstep>
   <time name="dav">    3.79    3.79</time>
   <time name="total">    3.79    3.79</time>
   <energy>
    <i name="e_fr_energy">    -94.16561521 </i>
    <i name="e_wo_entrp">    -94.16561521 </i>
    <i name="e_0_energy">    -94.16561521 </i>
   </energy>
  </scstep>
  <scstep>
   <time name="dav">    3.93    3.93</time>
   <time name="total">    3.93    3.93</time>
   <energy>
    <i name="e_fr_energy">   -112.30210244 </i>
    <i name="e_wo_entrp">   -112.30210244 </i>
    <i name="e_0_energy">   -112.30210244 </i>
   </energy>
  </scstep>
  <scstep>
   <time name="dav">    2.02    2.02</time>
   <time name="total">    2.21    2.22</time>
   <energy>
    <i name="e_fr_energy">   -112.56935051 </i>
    <i name="e_wo_entrp">   -112.56935051 </i>
    <i name="e_0_energy">   -112.56935051 </i>
   </energy>
  </scstep>
  <scstep>
   <time name="diag">    0.22    0.22</time>
   <time name="diis">    1.31    1.31</time>
   <time name="orth">    0.01    0.01</time>
   <time name="total">    2.96    2.96</time>
   <energy>
    <i name="e_fr_energy">   -103.73120057 </i>
    <i name="e_wo_entrp">   -103.73120057 </i>
    <i name="e_0_energy">   -103.73120057 </i>
   </energy>
  </scstep>
  <scstep>
   <time name="diag">    0.63    0.63</time>
   <time name="diis">    2.97    2.97</time>
   <time name="orth">    0.02    0.02</time>
   <time name="total">    6.21    6.21</time>
   <energy>
    <i name="e_fr_energy">   -101.67890465 </i>
    <i name="e_wo_entrp">   -101.67890465 </i>
    <i name="e_0_energy">   -101.67890465 </i>
   </energy>
  </scstep>
  <scstep>
   <time name="diag">    0.63    0.63</time>
   <time name="diis">    2.86    2.86</time>
   <time name="orth">    0.01    0.01</time>
   <time name="total">    6.04    6.04</time>
   <energy>
    <i name="e_fr_energy">   -101.51508141 </i>
    <i name="e_wo_entrp">   -101.51508141 </i>
    <i name="e_0_energy">   -101.51508141 </i>
   </energy>
  </scstep>
  <scstep>
   <time name="diag">    0.54    0.54</time>
   <time name="diis">    3.23    3.23</time>
   <time name="orth">    0.03    0.03</time>
   <time name="total">    5.91    5.91</time>
   <energy>
    <i name="e_fr_energy">   -101.42431407 </i>
    <i name="e_wo_entrp">   -101.42431407 </i>
    <i name="e_0_energy">   -101.42431407 </i>
   </energy>
  </scstep>
  <scstep>
   <time name="diag">    0.23    0.23</time>
   <time name="diis">    1.42    1.42</time>
   <time name="orth">    0.01    0.01</time>
   <time name="total">    3.00    3.00</time>
   <energy>
    <i name="e_fr_energy">   -101.41921491 </i>
    <i name="e_wo_entrp">   -101.41921491 </i>
    <i name="e_0_energy">   -101.41921491 </i>
   </energy>
  </scstep>
  <scstep>
   <time name="diag">    0.24    0.24</time>
   <time name="diis">    1.24    1.24</time>
   <time name="orth">    0.01    0.01</time>
   <time name="total">    2.94    2.94</time>
   <energy>
    <i name="e_fr_energy">   -101.42626635 </i>
    <i name="e_wo_entrp">   -101.42626635 </i>
    <i name="e_0_energy">   -101.42626635 </i>
   </energy>
  </scstep>
  <scstep>
   <time name="diag">    0.22    0.22</time>
   <time name="diis">    1.44    1.44</time>
   <time name="orth">    0.01    0.01</time>
   <time name="total">    2.90    2.90</time>
   <energy>
    <i name="e_fr_energy">   -101.42383459 </i>
    <i name="e_wo_entrp">   -101.42383459 </i>
    <i name="e_0_energy">   -101.42383459 </i>
   </energy>
  </scstep>
  <scstep>
   <time name="diag">    0.23    0.23</time>
   <time name="diis">    1.31    1.31</time>
   <time name="orth">    0.01    0.01</time>
   <time name="total">    2.85    2.85</time>
   <energy>
    <i name="e_fr_energy">   -101.43086391 </i>
    <i name="e_wo_entrp">   -101.43086391 </i>
    <i name="e_0_energy">   -101.43086391 </i>
   </energy>
  </scstep>
  <scstep>
   <time name="diag">    0.24    0.24</time>
   <time name="diis">    1.29    1.29</time>
   <time name="orth">    0.01    0.01</time>
   <time name="total">    2.79    2.79</time>
   <energy>
    <i name="e_fr_energy">   -101.43486898 </i>
    <i name="e_wo_entrp">   -101.43486898 </i>
    <i name="e_0_energy">   -101.43486898 </i>
   </energy>
  </scstep>
  <scstep>
   <time name="diag">    0.23    0.23</time>
   <time name="diis">    1.37    1.37</time>
   <time name="orth">    0.01    0.01</time>
   <time name="total">    2.83    2.83</time>
   <energy>
    <i name="e_fr_energy">   -101.44606461 </i>
    <i name="e_wo_entrp">   -101.44606461 </i>
    <i name="e_0_energy">   -101.44606461 </i>
   </energy>
  </scstep>
  <scstep>
   <time name="diag">    0.24    0.24</time>
   <time name="diis">    1.32    1.32</time>
   <time name="orth">    0.01    0.01</time>
   <time name="total">    2.96    2.96</time>
   <energy>
    <i name="e_fr_energy">   -101.44780630 </i>
    <i name="e_wo_entrp">   -101.44780630 </i>
    <i name="e_0_energy">   -101.44780630 </i>
   </energy>
  </scstep>
  <scstep>
   <time name="diag">    0.18    0.18</time>
   <time name="diis">    1.29    1.29</time>
   <time name="orth">    0.01    0.01</time>
   <time name="total">    2.80    2.80</time>
   <energy>
    <i name="e_fr_energy">   -101.45055455 </i>
    <i name="e_wo_entrp">   -101.45055455 </i>
    <i name="e_0_energy">   -101.45055455 </i>
   </energy>
  </scstep>
  <scstep>
   <time name="diag">    0.55    0.55</time>
   <time name="diis">    1.84    1.84</time>
   <time name="orth">    0.01    0.01</time>
   <time name="total">    4.95    5.34</time>
   <energy>
    <i name="e_fr_energy">   -101.45155809 </i>
    <i name="e_wo_entrp">   -101.45155809 </i>
    <i name="e_0_energy">   -101.45155809 </i>
   </energy>
  </scstep>
  <scstep>
   <time name="diag">    0.23    0.23</time>
   <time name="diis">    1.29    1.30</time>
   <time name="orth">    0.01    0.01</time>
   <time name="total">    3.10    3.10</time>
   <energy>
    <i name="e_fr_energy">   -101.45208515 </i>
    <i name="e_wo_entrp">   -101.45208515 </i>
    <i name="e_0_energy">   -101.45208515 </i>
   </energy>
  </scstep>
  <scstep>
   <time name="diag">    0.22    0.22</time>
   <time name="diis">    1.28    1.32</time>
   <time name="orth">    0.03    0.03</time>
   <time name="total">    3.29    3.32</time>
   <energy>
    <i name="e_fr_energy">   -101.45230932 </i>
    <i name="e_wo_entrp">   -101.45230932 </i>
    <i name="e_0_energy">   -101.45230932 </i>
   </energy>
  </scstep>
  <scstep>
   <time name="diag">    0.42    0.42</time>
   <time name="diis">    1.65    1.65</time>
   <time name="orth">    0.01    0.01</time>
   <time name="total">    4.12    4.13</time>
   <energy>
    <i name="e_fr_energy">   -101.45241808 </i>
    <i name="e_wo_entrp">   -101.45241808 </i>
    <i name="e_0_energy">   -101.45241808 </i>
   </energy>
  </scstep>
  <scstep>
   <time name="diag">    0.57    0.57</time>
   <time name="diis">    1.98    1.98</time>
   <time name="orth">    0.02    0.02</time>
   <time name="total">    5.02    5.02</time>
   <energy>
    <i name="e_fr_energy">   -101.45246777 </i>
    <i name="e_wo_entrp">   -101.45246777 </i>
    <i name="e_0_energy">   -101.45246777 </i>
   </energy>
  </scstep>
  <scstep>
   <time name="diag">    0.49    0.49</time>
   <time name="diis">    1.81    1.81</time>
   <time name="orth">    0.02    0.02</time>
   <time name="total">    5.03    5.03</time>
   <energy>
    <i name="e_fr_energy">   -101.45248052 </i>
    <i name="e_wo_entrp">   -101.45248052 </i>
    <i name="e_0_energy">   -101.45248052 </i>
   </energy>
  </scstep>
  <scstep>
   <time name="diag">    0.67    0.67</time>
   <time name="diis">    1.59    1.59</time>
   <time name="orth">    0.02    0.02</time>
   <time name="total">    5.11    5.11</time>
   <energy>
    <i name="e_fr_energy">   -101.45249308 </i>
    <i name="e_wo_entrp">   -101.45249308 </i>
    <i name="e_0_energy">   -101.45249308 </i>
   </energy>
  </scstep>
  <scstep>
   <time name="diag">    0.46    0.46</time>
   <time name="diis">    1.32    1.32</time>
   <time name="orth">    0.02    0.02</time>
   <time name="total">    3.66    3.68</time>
   <energy>
    <i name="alphaZ">      2.15216506 </i>
    <i name="ewald">   2239.06040278 </i>
    <i name="hartreedc">  -3368.98592623 </i>
    <i name="XCdc">    139.26516270 </i>
    <i name="pawpsdc">   3510.66004401 </i>
    <i name="pawaedc">  -3517.02445091 </i>
    <i name="eentropy">     -0.00000000 </i>
    <i name="bandstr">   -513.25315666 </i>
    <i name="atom">   1406.67326350 </i>
    <i name="e_fr_energy">   -101.45249574 </i>
    <i name="e_wo_entrp">   -101.45249574 </i>
    <i name="e_0_energy">   -101.45249574 </i>
   </energy>
  </scstep>
  <structure>
   <crystal>
    <varray name="basis" >
     <v>      15.40225029       0.00000000       0.00000000 </v>
     <v>       0.00000000      15.40225029       0.00000000 </v>
     <v>       0.00000000       0.00000000      15.40225029 </v>
    </varray>
    <i name="volume">   3653.86527022 </i>
    <varray name="rec_basis" >
     <v>       0.06492558       0.00000000       0.00000000 </v>
     <v>       0.00000000       0.06492558       0.00000000 </v>
     <v>       0.00000000       0.00000000       0.06492558 </v>
    </varray>
   </crystal>
   <varray name="positions" >
    <v>       0.33794731       0.43888269       0.57664537 </v>
    <v>       0.33568234       0.53309719       0.57912156 </v>
    <v>       0.40381729       0.58497369       0.56248302 </v>
    <v>       0.40899409       0.39153510       0.55825681 </v>
    <v>       0.44525107       0.44037195       0.38783310 </v>
    <v>       0.44385560       0.52744710       0.39255656 </v>
    <v>       0.51990641       0.57919244       0.38889734 </v>
    <v>       0.27566295       0.40639116       0.58544788 </v>
    <v>       0.47124990       0.42361153       0.55050685 </v>
    <v>       0.40741181       0.32150006       0.54993480 </v>
    <v>       0.27211010       0.56216004       0.58999082 </v>
    <v>       0.46807479       0.55849748       0.55031634 </v>
    <v>       0.39836468       0.65513545       0.55781240 </v>
    <v>       0.38587349       0.40308582       0.39366988 </v>
    <v>       0.50547701       0.40452575       0.38013839 </v>
    <v>       0.38372963       0.56278865       0.40285837 </v>
    <v>       0.58150905       0.62359758       0.38712288 </v>
   </varray>
  </structure>
  <varray name="forces" >
   <v>      -0.07701967      -0.07632367      -0.00322501 </v>
   <v>      -0.05337488       0.01930652       0.02144856 </v>
   <v>       0.05475457       0.11579311       0.08898878 </v>
   <v>      -0.03573021      -0.02350468       0.13879269 </v>
   <v>      -0.06332602      -0.06160658      -0.04967844 </v>
   <v>       0.03766183       0.02562006      -0.24678985 </v>
   <v>       0.07233238       0.04385744      -0.10298487 </v>
   <v>      -0.08858179      -0.12041453       0.02583084 </v>
   <v>       0.25610827      -0.10987856       0.06335206 </v>
   <v>      -0.03387624      -0.13172918       0.12868509 </v>
   <v>      -0.12140839       0.10867971       0.07324674 </v>
   <v>       0.15292027       0.03327606       0.16607618 </v>
   <v>      -0.08103582       0.15302230       0.12431544 </v>
   <v>      -0.13510687      -0.03515662      -0.20443092 </v>
   <v>       0.16214473      -0.06371874      -0.04450868 </v>
   <v>      -0.16649563       0.04903462      -0.17704558 </v>
   <v>       0.12003346       0.07374275      -0.00207305 </v>
  </varray>
  <varray name="stress" >
   <v>      -0.04441894       0.05857237      -0.15858572 </v>
   <v>       0.05857237       0.02073543      -0.01440979 </v>
   <v>      -0.15858572      -0.01440979       0.01492506 </v>
  </varray>
  <energy>
   <i name="e_fr_energy">   -101.67975644 </i>
   <i name="e_wo_entrp">   -101.67975644 </i>
   <i name="e_0_energy">   -101.67975644 </i>
  </energy>
  <time name="totalsc">  126.72  127.22</time>
 </calculation>
 <calculation>
  <scstep>
   <time name="dav">    3.17    3.17</time>
   <time name="total">    5.75    5.75</time>
   <energy>
    <i name="alphaZ">      2.15216506 </i>
    <i name="ewald">   2235.61839640 </i>
    <i name="hartreedc">  -3366.04363189 </i>
    <i name="XCdc">    139.22634310 </i>
    <i name="pawpsdc">   3510.66404134 </i>
    <i name="pawaedc">  -3517.02845322 </i>
    <i name="eentropy">     -0.00000000 </i>
    <i name="bandstr">   -512.71988542 </i>
    <i name="atom">   1406.67326350 </i>
    <i name="e_fr_energy">   -101.45776114 </i>
    <i name="e_wo_entrp">   -101.45776114 </i>
    <i name="e_0_energy">   -101.45776114 </i>
   </energy>
  </scstep>
  <scstep>
   <time name="diag">    0.54    0.54</time>
   <time name="diis">    3.03    3.03</time>
   <time name="orth">    0.01    0.01</time>
   <time name="total">    6.08    6.08</time>
   <energy>
    <i name="e_fr_energy">   -101.45864093 </i>
    <i name="e_wo_entrp">   -101.45864093 </i>
    <i name="e_0_energy">   -101.45864093 </i>
   </energy>
  </scstep>
  <scstep>
   <time name="diag">    0.59    0.59</time>
   <time name="diis">    2.73    2.77</time>
   <time name="orth">    0.01    0.02</time>
   <time name="total">    5.84    5.89</time>
   <energy>
    <i name="e_fr_energy">   -101.45868298 </i>
    <i name="e_wo_entrp">   -101.45868298 </i>
    <i name="e_0_energy">   -101.45868298 </i>
   </energy>
  </scstep>
  <scstep>
   <time name="diag">    0.33    0.33</time>
   <time name="diis">    1.95    1.95</time>
   <time name="orth">    0.01    0.01</time>
   <time name="total">    4.01    4.01</time>
   <energy>
    <i name="e_fr_energy">   -101.45872576 </i>
    <i name="e_wo_entrp">   -101.45872576 </i>
    <i name="e_0_energy">   -101.45872576 </i>
   </energy>
  </scstep>
  <scstep>
   <time name="diag">    0.15    0.15</time>
   <time name="diis">    1.19    1.19</time>
   <time name="orth">    0.01    0.01</time>
   <time name="total">    2.48    2.49</time>
   <energy>
    <i name="e_fr_energy">   -101.45874086 </i>
    <i name="e_wo_entrp">   -101.45874086 </i>
    <i name="e_0_energy">   -101.45874086 </i>
   </energy>
  </scstep>
  <scstep>
   <time name="diag">    0.21    0.21</time>
   <time name="diis">    0.71    0.71</time>
   <time name="orth">    0.01    0.01</time>
   <time name="total">    1.98    1.98</time>
   <energy>
    <i name="alphaZ">      2.15216506 </i>
    <i name="ewald">   2235.61839640 </i>
    <i name="hartreedc">  -3365.70800790 </i>
    <i name="XCdc">    139.21160537 </i>
    <i name="pawpsdc">   3502.27053452 </i>
    <i name="pawaedc">  -3508.63034867 </i>
    <i name="eentropy">     -0.00000000 </i>
    <i name="bandstr">   -513.04635215 </i>
    <i name="atom">   1406.67326350 </i>
    <i name="e_fr_energy">   -101.45874385 </i>
    <i name="e_wo_entrp">   -101.45874385 </i>
    <i name="e_0_energy">   -101.45874385 </i>
   </energy>
  </scstep>
  <structure>
   <crystal>
    <varray name="basis" >
     <v>      15.40225029       0.00000000       0.00000000 </v>
     <v>       0.00000000      15.40225029       0.00000000 </v>
     <v>       0.00000000       0.00000000      15.40225029 </v>
    </varray>
    <i name="volume">   3653.86527022 </i>
    <varray name="rec_basis" >
     <v>       0.06492558       0.00000000       0.00000000 </v>
     <v>       0.00000000       0.06492558       0.00000000 </v>
     <v>       0.00000000       0.00000000       0.06492558 </v>
    </varray>
   </crystal>
   <varray name="positions" >
    <v>       0.33790102       0.43884790       0.57664320 </v>
    <v>       0.33568677       0.53312585       0.57914157 </v>
    <v>       0.40387307       0.58504770       0.56239354 </v>
    <v>       0.40892544       0.39150527       0.55819252 </v>
    <v>       0.44498336       0.44032885       0.38747979 </v>
    <v>       0.44366244       0.52745482       0.39214024 </v>
    <v>       0.51973456       0.57921247       0.38844835 </v>
    <v>       0.27560763       0.40635061       0.58561834 </v>
    <v>       0.47136693       0.42350762       0.55024744 </v>
    <v>       0.40729994       0.32140119       0.54987847 </v>
    <v>       0.27209334       0.56226147       0.59020841 </v>
    <v>       0.46816841       0.55850831       0.55011460 </v>
    <v>       0.39833680       0.65523383       0.55776393 </v>
    <v>       0.38555919       0.40306411       0.39334510 </v>
    <v>       0.50533931       0.40447312       0.37963575 </v>
    <v>       0.38341966       0.56280833       0.40264949 </v>
    <v>       0.58136567       0.62364057       0.38664010 </v>
   </varray>
  </structure>
  <varray name="forces" >
   <v>      -0.07889773      -0.04165338       0.00425273 </v>
   <v>      -0.03319693       0.04892070       0.01434132 </v>
   <v>       0.02455365       0.06584596       0.09434560 </v>
   <v>       0.03193860      -0.03786845       0.11737772 </v>
   <v>      -0.00721321      -0.05534926      -0.06291066 </v>
   <v>      -0.01646095       0.02555493      -0.22391212 </v>
   <v>       0.10470029       0.06732693      -0.10456052 </v>
   <v>      -0.07317181      -0.11132296       0.02113444 </v>
   <v>       0.18002906      -0.13592755       0.07360663 </v>
   <v>      -0.03372186      -0.09803962       0.13328008 </v>
   <v>      -0.08476162       0.09087836       0.06333370 </v>
   <v>       0.11560165       0.05134197       0.16873101 </v>
   <v>      -0.07391896       0.13713948       0.12533323 </v>
   <v>      -0.11828479      -0.02826111      -0.20050079 </v>
   <v>       0.09907648      -0.03580585      -0.03508208 </v>
   <v>      -0.10425313       0.02088122      -0.18837498 </v>
   <v>       0.06798124       0.03633863      -0.00039531 </v>
  </varray>
  <varray name="stress" >
   <v>      -0.23570819       0.03223735      -0.13139689 </v>
   <v>       0.03223735      -0.10860288      -0.01419220 </v>
   <v>      -0.13139689      -0.01419220      -0.00082094 </v>
  </varray>
  <energy>
   <i name="e_fr_energy">   -101.68591149 </i>
   <i name="e_wo_entrp">   -101.68591149 </i>
   <i name="e_0_energy">   -101.68591149 </i>
  </energy>
  <time name="totalsc">   37.03   37.13</time>
 </calculation>
 <calculation>
  <scstep>
   <time name="dav">    2.49    2.49</time>
   <time name="total">    3.81    3.83</time>
   <energy>
    <i name="alphaZ">      2.15216506 </i>
    <i name="ewald">   2231.34035122 </i>
    <i name="hartreedc">  -3361.92233673 </i>
    <i name="XCdc">    139.16752254 </i>
    <i name="pawpsdc">   3502.22687484 </i>
    <i name="pawaedc">  -3508.58660422 </i>
    <i name="eentropy">     -0.00000000 </i>
    <i name="bandstr">   -512.51575878 </i>
    <i name="atom">   1406.67326350 </i>
    <i name="e_fr_energy">   -101.46452258 </i>
    <i name="e_wo_entrp">   -101.46452258 </i>
    <i name="e_0_energy">   -101.46452258 </i>
   </energy>
  </scstep>
  <scstep>
   <time name="diag">    0.47    0.47</time>
   <time name="diis">    1.97    1.97</time>
   <time name="orth">    0.02    0.02</time>
   <time name="total">    4.05    4.05</time>
   <energy>
    <i name="e_fr_energy">   -101.46578452 </i>
    <i name="e_wo_entrp">   -101.46578452 </i>
    <i name="e_0_energy">   -101.46578452 </i>
   </energy>
  </scstep>
  <scstep>
   <time name="diag">    0.40    0.40</time>
   <time name="diis">    1.56    1.56</time>
   <time name="orth">    0.01    0.01</time>
   <time name="total">    3.88    3.88</time>
   <energy>
    <i name="e_fr_energy">   -101.46590522 </i>
    <i name="e_wo_entrp">   -101.46590522 </i>
    <i name="e_0_energy">   -101.46590522 </i>
   </energy>
  </scstep>
  <scstep>
   <time name="diag">    0.39    0.39</time>
   <time name="diis">    2.35    2.35</time>
   <time name="orth">    0.01    0.01</time>
   <time name="total">    4.58    4.59</time>
   <energy>
    <i name="e_fr_energy">   -101.46599782 </i>
    <i name="e_wo_entrp">   -101.46599782 </i>
    <i name="e_0_energy">   -101.46599782 </i>
   </energy>
  </scstep>
  <scstep>
   <time name="diag">    0.31    0.31</time>
   <time name="diis">    1.56    1.56</time>
   <time name="orth">    0.01    0.01</time>
   <time name="total">    3.25    3.25</time>
   <energy>
    <i name="e_fr_energy">   -101.46600873 </i>
    <i name="e_wo_entrp">   -101.46600873 </i>
    <i name="e_0_energy">   -101.46600873 </i>
   </energy>
  </scstep>
  <scstep>
   <time name="diag">    0.31    0.31</time>
   <time name="diis">    1.10    1.10</time>
   <time name="orth">    0.01    0.01</time>
   <time name="total">    2.76    2.76</time>
   <energy>
    <i name="alphaZ">      2.15216506 </i>
    <i name="ewald">   2231.34035122 </i>
    <i name="hartreedc">  -3361.60745395 </i>
    <i name="XCdc">    139.15586500 </i>
    <i name="pawpsdc">   3493.61687968 </i>
    <i name="pawaedc">  -3499.97268277 </i>
    <i name="eentropy">     -0.00000000 </i>
    <i name="bandstr">   -512.82440122 </i>
    <i name="atom">   1406.67326350 </i>
    <i name="e_fr_energy">   -101.46601348 </i>
    <i name="e_wo_entrp">   -101.46601348 </i>
    <i name="e_0_energy">   -101.46601348 </i>
   </energy>
  </scstep>
  <structure>
   <crystal>
    <varray name="basis" >
     <v>      15.40225029       0.00000000       0.00000000 </v>
     <v>       0.00000000      15.40225029       0.00000000 </v>
     <v>       0.00000000       0.00000000      15.40225029 </v>
    </varray>
    <i name="volume">   3653.86527022 </i>
    <varray name="rec_basis" >
     <v>       0.06492558       0.00000000       0.00000000 </v>
     <v>       0.00000000       0.06492558       0.00000000 </v>
     <v>       0.00000000       0.00000000       0.06492558 </v>
    </varray>
   </crystal>
   <varray name="positions" >
    <v>       0.33783166       0.43882639       0.57664521 </v>
    <v>       0.33571038       0.53319497       0.57916197 </v>
    <v>       0.40392877       0.58511078       0.56227101 </v>
    <v>       0.40889351       0.39145011       0.55808310 </v>
    <v>       0.44464529       0.44026954       0.38697171 </v>
    <v>       0.44333318       0.52746890       0.39156259 </v>
    <v>       0.51952227       0.57926477       0.38780572 </v>
    <v>       0.27554172       0.40629355       0.58585633 </v>
    <v>       0.47147897       0.42332935       0.54989276 </v>
    <v>       0.40714365       0.32128678       0.54980392 </v>
    <v>       0.27210012       0.56239435       0.59050798 </v>
    <v>       0.46827755       0.55854285       0.54984198 </v>
    <v>       0.39830076       0.65536619       0.55769722 </v>
    <v>       0.38511529       0.40303981       0.39287534 </v>
    <v>       0.50508644       0.40442259       0.37893303 </v>
    <v>       0.38302571       0.56281399       0.40232958 </v>
    <v>       0.58111864       0.62366626       0.38595634 </v>
   </varray>
  </structure>
  <varray name="forces" >
   <v>      -0.02698045      -0.03064420       0.00024359 </v>
   <v>      -0.04032667       0.04181051       0.01428898 </v>
   <v>       0.01777580       0.06047462       0.09140224 </v>
   <v>       0.01799399      -0.02816133       0.11099861 </v>
   <v>       0.00152271      -0.02413983      -0.07346009 </v>
   <v>      -0.00277021       0.01483287      -0.20477509 </v>
   <v>      -0.01339756      -0.00978634      -0.10031385 </v>
   <v>      -0.05239158      -0.09744214       0.01502739 </v>
   <v>       0.12625758      -0.14798190       0.08073142 </v>
   <v>      -0.03117515      -0.07052427       0.13662666 </v>
   <v>      -0.04515358       0.07430258       0.05143693 </v>
   <v>       0.07340491       0.06795709       0.17063211 </v>
   <v>      -0.06400736       0.09921750       0.12774389 </v>
   <v>      -0.08068545      -0.01322966      -0.19653084 </v>
   <v>       0.05427339      -0.01756397      -0.02757977 </v>
   <v>      -0.06170892       0.00413138      -0.19715379 </v>
   <v>       0.12736854       0.07674711       0.00068160 </v>
  </varray>
  <varray name="stress" >
   <v>      -0.41049737       0.04306279      -0.09934357 </v>
   <v>       0.04306279      -0.25184287      -0.01859902 </v>
   <v>      -0.09934357      -0.01859901      -0.02182607 </v>
  </varray>
  <energy>
   <i name="e_fr_energy">   -101.69305608 </i>
   <i name="e_wo_entrp">   -101.69305608 </i>
   <i name="e_0_energy">   -101.69305608 </i>
  </energy>
  <time name="totalsc">   37.87   37.93</time>
 </calculation>
 <calculation>
  <scstep>
   <time name="dav">    3.49    3.52</time>
   <time name="total">    6.24    6.27</time>
   <energy>
    <i name="alphaZ">      2.15216506 </i>
    <i name="ewald">   2228.77215780 </i>
    <i name="hartreedc">  -3359.36453727 </i>
    <i name="XCdc">    139.12949837 </i>
    <i name="pawpsdc">   3493.70976800 </i>
    <i name="pawaedc">  -3500.06541727 </i>
    <i name="eentropy">     -0.00000000 </i>
    <i name="bandstr">   -512.47636009 </i>
    <i name="atom">   1406.67326350 </i>
    <i name="e_fr_energy">   -101.46946189 </i>
    <i name="e_wo_entrp">   -101.46946189 </i>
    <i name="e_0_energy">   -101.46946189 </i>
   </energy>
  </scstep>
  <scstep>
   <time name="diag">    0.63    0.63</time>
   <time name="diis">    2.78    2.78</time>
   <time name="orth">    0.02    0.02</time>
   <time name="total">    6.11    6.11</time>
   <energy>
    <i name="e_fr_energy">   -101.46993348 </i>
    <i name="e_wo_entrp">   -101.46993348 </i>
    <i name="e_0_energy">   -101.46993348 </i>
   </energy>
  </scstep>
  <scstep>
   <time name="diag">    0.63    0.63</time>
   <time name="diis">    2.98    2.98</time>
   <time name="orth">    0.02    0.02</time>
   <time name="total">    6.44    6.44</time>
   <energy>
    <i name="e_fr_energy">   -101.46998616 </i>
    <i name="e_wo_entrp">   -101.46998616 </i>
    <i name="e_0_energy">   -101.46998616 </i>
   </energy>
  </scstep>
  <scstep>
   <time name="diag">    0.53    0.53</time>
   <time name="diis">    2.20    2.20</time>
   <time name="orth">    0.02    0.02</time>
   <time name="total">    5.11    5.11</time>
   <energy>
    <i name="e_fr_energy">   -101.47001908 </i>
    <i name="e_wo_entrp">   -101.47001908 </i>
    <i name="e_0_energy">   -101.47001908 </i>
   </energy>
  </scstep>
  <scstep>
   <time name="diag">    0.33    0.33</time>
   <time name="diis">    0.96    0.96</time>
   <time name="orth">    0.01    0.01</time>
   <time name="total">    2.80    2.80</time>
   <energy>
    <i name="alphaZ">      2.15216506 </i>
    <i name="ewald">   2228.77215780 </i>
    <i name="hartreedc">  -3359.13491871 </i>
    <i name="XCdc">    139.12005875 </i>
    <i name="pawpsdc">   3487.76642440 </i>
    <i name="pawaedc">  -3494.11852174 </i>
    <i name="eentropy">     -0.00000000 </i>
    <i name="bandstr">   -512.70065596 </i>
    <i name="atom">   1406.67326350 </i>
    <i name="e_fr_energy">   -101.47002690 </i>
    <i name="e_wo_entrp">   -101.47002690 </i>
    <i name="e_0_energy">   -101.47002690 </i>
   </energy>
  </scstep>
  <structure>
   <crystal>
    <varray name="basis" >
     <v>      15.40225029       0.00000000       0.00000000 </v>
     <v>       0.00000000      15.40225029       0.00000000 </v>
     <v>       0.00000000       0.00000000      15.40225029 </v>
    </varray>
    <i name="volume">   3653.86527022 </i>
    <varray name="rec_basis" >
     <v>       0.06492558       0.00000000       0.00000000 </v>
     <v>       0.00000000       0.06492558       0.00000000 </v>
     <v>       0.00000000       0.00000000       0.06492558 </v>
    </varray>
   </crystal>
   <varray name="positions" >
    <v>       0.33781139       0.43881640       0.57664360 </v>
    <v>       0.33572130       0.53323563       0.57917342 </v>
    <v>       0.40396205       0.58514901       0.56219499 </v>
    <v>       0.40887114       0.39142019       0.55801415 </v>
    <v>       0.44443702       0.44024586       0.38665784 </v>
    <v>       0.44313324       0.52747410       0.39121115 </v>
    <v>       0.51933900       0.57926300       0.38741023 </v>
    <v>       0.27550991       0.40625940       0.58599971 </v>
    <v>       0.47153265       0.42320874       0.54968177 </v>
    <v>       0.40705032       0.32122631       0.54976131 </v>
    <v>       0.27212077       0.56247180       0.59068623 </v>
    <v>       0.46833165       0.55857409       0.54968394 </v>
    <v>       0.39828108       0.65543493       0.55765875 </v>
    <v>       0.38485098       0.40303172       0.39257977 </v>
    <v>       0.50491002       0.40439936       0.37850686 </v>
    <v>       0.38279677       0.56281184       0.40211931 </v>
    <v>       0.58099712       0.62369984       0.38553728 </v>
   </varray>
  </structure>
  <varray name="forces" >
   <v>      -0.01897236      -0.02210982       0.00226594 </v>
   <v>      -0.03072628       0.03816069       0.01209429 </v>
   <v>       0.00515566       0.05377164       0.09245391 </v>
   <v>       0.01652860      -0.03033050       0.10585234 </v>
   <v>       0.00046046      -0.01770260      -0.07929447 </v>
   <v>      -0.01237087       0.00547998      -0.19317071 </v>
   <v>       0.07535018       0.05698183      -0.10338387 </v>
   <v>      -0.03422980      -0.08651731       0.01054240 </v>
   <v>       0.10228524      -0.15087325       0.08399947 </v>
   <v>      -0.03049282      -0.05680865       0.13851778 </v>
   <v>      -0.02984487       0.06664247       0.04556267 </v>
   <v>       0.05500816       0.07437095       0.17043025 </v>
   <v>      -0.05885495       0.08249704       0.12881964 </v>
   <v>      -0.06040058      -0.00459667      -0.19339907 </v>
   <v>       0.03472453      -0.00957934      -0.02353475 </v>
   <v>      -0.04196322      -0.00448868      -0.20080751 </v>
   <v>       0.02834291       0.00510222       0.00305171 </v>
  </varray>
  <varray name="stress" >
   <v>      -0.53383048       0.01101095      -0.08157795 </v>
   <v>       0.01101095      -0.33905027      -0.01804902 </v>
   <v>      -0.08157795      -0.01804902      -0.03101500 </v>
  </varray>
  <energy>
   <i name="e_fr_energy">   -101.69698635 </i>
   <i name="e_wo_entrp">   -101.69698635 </i>
   <i name="e_0_energy">   -101.69698635 </i>
  </energy>
  <time name="totalsc">   36.32   36.37</time>
 </calculation>
 <calculation>
  <scstep>
   <time name="dav">    2.87    2.87</time>
   <time name="total">    5.52    5.52</time>
   <energy>
    <i name="alphaZ">      2.15216506 </i>
    <i name="ewald">   2227.12966079 </i>
    <i name="hartreedc">  -3357.61707315 </i>
    <i name="XCdc">    139.10742486 </i>
    <i name="pawpsdc">   3487.36766695 </i>
    <i name="pawaedc">  -3493.71980186 </i>
    <i name="eentropy">     -0.00000000 </i>
    <i name="bandstr">   -512.56613525 </i>
    <i name="atom">   1406.67326350 </i>
    <i name="e_fr_energy">   -101.47282911 </i>
    <i name="e_wo_entrp">   -101.47282911 </i>
    <i name="e_0_energy">   -101.47282911 </i>
   </energy>
  </scstep>
  <scstep>
   <time name="diag">    0.56    0.56</time>
   <time name="diis">    2.88    2.88</time>
   <time name="orth">    0.02    0.02</time>
   <time name="total">    6.08    6.08</time>
   <energy>
    <i name="e_fr_energy">   -101.47318328 </i>
    <i name="e_wo_entrp">   -101.47318328 </i>
    <i name="e_0_energy">   -101.47318328 </i>
   </energy>
  </scstep>
  <scstep>
   <time name="diag">    0.61    0.61</time>
   <time name="diis">    2.42    2.42</time>
   <time name="orth">    0.02    0.02</time>
   <time name="total">    5.43    5.43</time>
   <energy>
    <i name="e_fr_energy">   -101.47322987 </i>
    <i name="e_wo_entrp">   -101.47322987 </i>
    <i name="e_0_energy">   -101.47322987 </i>
   </energy>
  </scstep>
  <scstep>
   <time name="diag">    0.29    0.29</time>
   <time name="diis">    1.07    1.07</time>
   <time name="orth">    0.01    0.01</time>
   <time name="total">    2.74    2.74</time>
   <energy>
    <i name="e_fr_energy">   -101.47325538 </i>
    <i name="e_wo_entrp">   -101.47325538 </i>
    <i name="e_0_energy">   -101.47325538 </i>
   </energy>
  </scstep>
  <scstep>
   <time name="diag">    0.21    0.21</time>
   <time name="diis">    0.84    0.84</time>
   <time name="orth">    0.01    0.01</time>
   <time name="total">    2.04    2.04</time>
   <energy>
    <i name="alphaZ">      2.15216506 </i>
    <i name="ewald">   2227.12966079 </i>
    <i name="hartreedc">  -3357.53917052 </i>
    <i name="XCdc">    139.10576158 </i>
    <i name="pawpsdc">   3485.57777908 </i>
    <i name="pawaedc">  -3491.92897272 </i>
    <i name="eentropy">     -0.00000000 </i>
    <i name="bandstr">   -512.64374689 </i>
    <i name="atom">   1406.67326350 </i>
    <i name="e_fr_energy">   -101.47326011 </i>
    <i name="e_wo_entrp">   -101.47326011 </i>
    <i name="e_0_energy">   -101.47326011 </i>
   </energy>
  </scstep>
  <structure>
   <crystal>
    <varray name="basis" >
     <v>      15.40225029       0.00000000       0.00000000 </v>
     <v>       0.00000000      15.40225029       0.00000000 </v>
     <v>       0.00000000       0.00000000      15.40225029 </v>
    </varray>
    <i name="volume">   3653.86527022 </i>
    <varray name="rec_basis" >
     <v>       0.06492558       0.00000000       0.00000000 </v>
     <v>       0.00000000       0.06492558       0.00000000 </v>
     <v>       0.00000000       0.00000000       0.06492558 </v>
    </varray>
   </crystal>
   <varray name="positions" >
    <v>       0.33781291       0.43881385       0.57664080 </v>
    <v>       0.33573364       0.53326779       0.57918034 </v>
    <v>       0.40398347       0.58517861       0.56213199 </v>
    <v>       0.40885217       0.39139567       0.55795311 </v>
    <v>       0.44425683       0.44023689       0.38638975 </v>
    <v>       0.44295716       0.52747174       0.39091875 </v>
    <v>       0.51920526       0.57928159       0.38707164 </v>
    <v>       0.27549917       0.40623344       0.58611615 </v>
    <v>       0.47156072       0.42309303       0.54951325 </v>
    <v>       0.40697468       0.32118782       0.54973046 </v>
    <v>       0.27215711       0.56253257       0.59082925 </v>
    <v>       0.46836237       0.55861313       0.54956369 </v>
    <v>       0.39826746       0.65547826       0.55763019 </v>
    <v>       0.38463892       0.40303459       0.39232009 </v>
    <v>       0.50473484       0.40438929       0.37815470 </v>
    <v>       0.38261921       0.56280258       0.40192233 </v>
    <v>       0.58085577       0.62369526       0.38518582 </v>
   </varray>
  </structure>
  <varray name="forces" >
   <v>      -0.02513367      -0.01680477       0.00588078 </v>
   <v>      -0.01969423       0.03296634       0.01036959 </v>
   <v>      -0.00412951       0.04974205       0.09337285 </v>
   <v>       0.01513661      -0.03411587       0.10245557 </v>
   <v>      -0.00127887      -0.01621658      -0.08315510 </v>
   <v>       0.00135194       0.01254837      -0.18673172 </v>
   <v>       0.02710944       0.02315787      -0.09923773 </v>
   <v>      -0.01806267      -0.07654226       0.00668096 </v>
   <v>       0.09314964      -0.14794701       0.08453623 </v>
   <v>      -0.03095588      -0.05163113       0.13916934 </v>
   <v>      -0.02449398       0.06248889       0.04204431 </v>
   <v>       0.04688655       0.07592617       0.16836331 </v>
   <v>      -0.05607159       0.07533777       0.12928041 </v>
   <v>      -0.04999134      -0.00035909      -0.19042945 </v>
   <v>       0.02725060      -0.00700056      -0.02199794 </v>
   <v>      -0.03575687      -0.00553677      -0.20184525 </v>
   <v>       0.05468384       0.02398659       0.00124383 </v>
  </varray>
  <varray name="stress" >
   <v>      -0.57338162       0.00809401      -0.07323466 </v>
   <v>       0.00809401      -0.37096089      -0.01742662 </v>
   <v>      -0.07323466      -0.01742662      -0.03926502 </v>
  </varray>
  <energy>
   <i name="e_fr_energy">   -101.70015592 </i>
   <i name="e_wo_entrp">   -101.70015592 </i>
   <i name="e_0_energy">   -101.70015592 </i>
  </energy>
  <time name="totalsc">   34.29   35.70</time>
 </calculation>
 <calculation>
  <scstep>
   <time name="dav">    1.89    3.37</time>
   <time name="total">    3.95    6.01</time>
   <energy>
    <i name="alphaZ">      2.15216506 </i>
    <i name="ewald">   2223.94474382 </i>
    <i name="hartreedc">  -3354.48668401 </i>
    <i name="XCdc">    139.08693390 </i>
    <i name="pawpsdc">   3485.32038706 </i>
    <i name="pawaedc">  -3491.67165962 </i>
    <i name="eentropy">     -0.00000000 </i>
    <i name="bandstr">   -512.49756074 </i>
    <i name="atom">   1406.67326350 </i>
    <i name="e_fr_energy">   -101.47841103 </i>
    <i name="e_wo_entrp">   -101.47841103 </i>
    <i name="e_0_energy">   -101.47841103 </i>
   </energy>
  </scstep>
  <scstep>
   <time name="diag">    0.26    0.36</time>
   <time name="diis">    1.58    2.42</time>
   <time name="orth">    0.01    0.01</time>
   <time name="total">    3.40    5.45</time>
   <energy>
    <i name="e_fr_energy">   -101.48039300 </i>
    <i name="e_wo_entrp">   -101.48039300 </i>
    <i name="e_0_energy">   -101.48039300 </i>
   </energy>
  </scstep>
  <scstep>
   <time name="diag">    0.28    0.30</time>
   <time name="diis">    1.52    1.53</time>
   <time name="orth">    0.01    0.01</time>
   <time name="total">    3.31    3.34</time>
   <energy>
    <i name="e_fr_energy">   -101.48060631 </i>
    <i name="e_wo_entrp">   -101.48060631 </i>
    <i name="e_0_energy">   -101.48060631 </i>
   </energy>
  </scstep>
  <scstep>
   <time name="diag">    0.20    0.27</time>
   <time name="diis">    2.20    2.88</time>
   <time name="orth">    0.02    0.05</time>
   <time name="total">    3.82    5.04</time>
   <energy>
    <i name="e_fr_energy">   -101.48073379 </i>
    <i name="e_wo_entrp">   -101.48073379 </i>
    <i name="e_0_energy">   -101.48073379 </i>
   </energy>
  </scstep>
  <scstep>
   <time name="diag">    0.35    0.45</time>
   <time name="diis">    1.25    1.67</time>
   <time name="orth">    0.01    0.01</time>
   <time name="total">    3.88    5.14</time>
   <energy>
    <i name="e_fr_energy">   -101.48075242 </i>
    <i name="e_wo_entrp">   -101.48075242 </i>
    <i name="e_0_energy">   -101.48075242 </i>
   </energy>
  </scstep>
  <scstep>
   <time name="diag">    0.13    0.13</time>
   <time name="diis">    0.74    1.07</time>
   <time name="orth">    0.01    0.01</time>
   <time name="total">    1.72    2.09</time>
   <energy>
    <i name="alphaZ">      2.15216506 </i>
    <i name="ewald">   2223.94474382 </i>
    <i name="hartreedc">  -3354.42160338 </i>
    <i name="XCdc">    139.08805265 </i>
    <i name="pawpsdc">   3483.07147667 </i>
    <i name="pawaedc">  -3489.42149326 </i>
    <i name="eentropy">     -0.00000000 </i>
    <i name="bandstr">   -512.56736543 </i>
    <i name="atom">   1406.67326350 </i>
    <i name="e_fr_energy">   -101.48076037 </i>
    <i name="e_wo_entrp">   -101.48076037 </i>
    <i name="e_0_energy">   -101.48076037 </i>
   </energy>
  </scstep>
  <structure>
   <crystal>
    <varray name="basis" >
     <v>      15.40225029       0.00000000       0.00000000 </v>
     <v>       0.00000000      15.40225029       0.00000000 </v>
     <v>       0.00000000       0.00000000      15.40225029 </v>
    </varray>
    <i name="volume">   3653.86527022 </i>
    <varray name="rec_basis" >
     <v>       0.06492558       0.00000000       0.00000000 </v>
     <v>       0.00000000       0.06492558       0.00000000 </v>
     <v>       0.00000000       0.00000000       0.06492558 </v>
    </varray>
   </crystal>
   <varray name="positions" >
    <v>       0.33783067       0.43882662       0.57663799 </v>
    <v>       0.33579404       0.53333028       0.57918511 </v>
    <v>       0.40400377       0.58523904       0.56199508 </v>
    <v>       0.40881320       0.39132826       0.55780413 </v>
    <v>       0.44381559       0.44023453       0.38575581 </v>
    <v>       0.44255907       0.52747601       0.39024488 </v>
    <v>       0.51882421       0.57928650       0.38627871 </v>
    <v>       0.27554031       0.40618785       0.58636853 </v>
    <v>       0.47159786       0.42279071       0.54915050 </v>
    <v>       0.40680649       0.32112540       0.54967634 </v>
    <v>       0.27228331       0.56266484       0.59113943 </v>
    <v>       0.46840335       0.55873735       0.54932668 </v>
    <v>       0.39824194       0.65554834       0.55757760 </v>
    <v>       0.38416856       0.40306835       0.39168093 </v>
    <v>       0.50426228       0.40438713       0.37735965 </v>
    <v>       0.38223313       0.56277063       0.40139993 </v>
    <v>       0.58052511       0.62366668       0.38437036 </v>
   </varray>
  </structure>
  <varray name="forces" >
   <v>      -0.01293987      -0.01869141       0.00648046 </v>
   <v>      -0.02601757       0.01557574       0.01459839 </v>
   <v>       0.00437483       0.05265284       0.09050203 </v>
   <v>      -0.00745890      -0.02504776       0.10304463 </v>
   <v>      -0.00130201      -0.00674737      -0.09042477 </v>
   <v>       0.00696789       0.00812448      -0.17576108 </v>
   <v>       0.04965981       0.03678716      -0.09245010 </v>
   <v>      -0.00253722      -0.06109352       0.00173148 </v>
   <v>       0.09192936      -0.13147177       0.08181056 </v>
   <v>      -0.03435098      -0.05951540       0.13813374 </v>
   <v>      -0.01810303       0.05323857       0.03474751 </v>
   <v>       0.03936961       0.07319329       0.16050404 </v>
   <v>      -0.05484969       0.07151863       0.12994617 </v>
   <v>      -0.04813201      -0.00080140      -0.18172716 </v>
   <v>       0.02922425      -0.01116598      -0.02130997 </v>
   <v>      -0.03831253       0.00133686      -0.19962962 </v>
   <v>       0.02247806       0.00210704      -0.00019629 </v>
  </varray>
  <varray name="stress" >
   <v>      -0.62062154       0.00068736      -0.06540328 </v>
   <v>       0.00068736      -0.40649321      -0.01767841 </v>
   <v>      -0.06540328      -0.01767841      -0.06214036 </v>
  </varray>
  <energy>
   <i name="e_fr_energy">   -101.70750290 </i>
   <i name="e_wo_entrp">   -101.70750290 </i>
   <i name="e_0_energy">   -101.70750290 </i>
  </energy>
  <time name="totalsc">   31.78   45.81</time>
 </calculation>
 <calculation>
  <scstep>
   <time name="dav">    2.37    3.12</time>
   <time name="total">    4.38    6.37</time>
   <energy>
    <i name="alphaZ">      2.15216506 </i>
    <i name="ewald">   2218.36321793 </i>
    <i name="hartreedc">  -3349.00726419 </i>
    <i name="XCdc">    139.05430193 </i>
    <i name="pawpsdc">   3483.07849448 </i>
    <i name="pawaedc">  -3489.42842190 </i>
    <i name="eentropy">     -0.00000000 </i>
    <i name="bandstr">   -512.37206333 </i>
    <i name="atom">   1406.67326350 </i>
    <i name="e_fr_energy">   -101.48630651 </i>
    <i name="e_wo_entrp">   -101.48630651 </i>
    <i name="e_0_energy">   -101.48630651 </i>
   </energy>
  </scstep>
  <scstep>
   <time name="diag">    0.48    0.50</time>
   <time name="diis">    2.17    2.60</time>
   <time name="orth">    0.04    0.05</time>
   <time name="total">    5.07    5.74</time>
   <energy>
    <i name="e_fr_energy">   -101.49278111 </i>
    <i name="e_wo_entrp">   -101.49278111 </i>
    <i name="e_0_energy">   -101.49278111 </i>
   </energy>
  </scstep>
  <scstep>
   <time name="diag">    0.45    0.70</time>
   <time name="diis">    1.70    2.28</time>
   <time name="orth">    0.01    0.01</time>
   <time name="total">    4.56    5.75</time>
   <energy>
    <i name="e_fr_energy">   -101.49330923 </i>
    <i name="e_wo_entrp">   -101.49330923 </i>
    <i name="e_0_energy">   -101.49330923 </i>
   </energy>
  </scstep>
  <scstep>
   <time name="diag">    0.30    0.31</time>
   <time name="diis">    1.78    2.63</time>
   <time name="orth">    0.02    0.04</time>
   <time name="total">    3.75    5.09</time>
   <energy>
    <i name="e_fr_energy">   -101.49366240 </i>
    <i name="e_wo_entrp">   -101.49366240 </i>
    <i name="e_0_energy">   -101.49366240 </i>
   </energy>
  </scstep>
  <scstep>
   <time name="diag">    0.27    0.27</time>
   <time name="diis">    1.23    1.71</time>
   <time name="orth">    0.02    0.03</time>
   <time name="total">    3.50    4.27</time>
   <energy>
    <i name="e_fr_energy">   -101.49373636 </i>
    <i name="e_wo_entrp">   -101.49373636 </i>
    <i name="e_0_energy">   -101.49373636 </i>
   </energy>
  </scstep>
  <scstep>
   <time name="diag">    0.16    0.22</time>
   <time name="diis">    0.75    1.09</time>
   <time name="orth">    0.00    0.00</time>
   <time name="total">    1.91    2.66</time>
   <energy>
    <i name="e_fr_energy">   -101.49375855 </i>
    <i name="e_wo_entrp">   -101.49375855 </i>
    <i name="e_0_energy">   -101.49375855 </i>
   </energy>
  </scstep>
  <scstep>
   <time name="diag">    0.08    0.08</time>
   <time name="diis">    0.46    0.48</time>
   <time name="orth">    0.02    0.02</time>
   <time name="total">    1.29    1.36</time>
   <energy>
    <i name="e_fr_energy">   -101.49376920 </i>
    <i name="e_wo_entrp">   -101.49376920 </i>
    <i name="e_0_energy">   -101.49376920 </i>
   </energy>
  </scstep>
  <scstep>
   <time name="diag">    0.15    0.16</time>
   <time name="diis">    0.64    0.68</time>
   <time name="orth">    0.02    0.02</time>
   <time name="total">    1.69    1.84</time>
   <energy>
    <i name="alphaZ">      2.15216506 </i>
    <i name="ewald">   2218.36321793 </i>
    <i name="hartreedc">  -3348.94981072 </i>
    <i name="XCdc">    139.05833993 </i>
    <i name="pawpsdc">   3479.34170235 </i>
    <i name="pawaedc">  -3485.69000194 </i>
    <i name="eentropy">     -0.00000000 </i>
    <i name="bandstr">   -512.44265514 </i>
    <i name="atom">   1406.67326350 </i>
    <i name="e_fr_energy">   -101.49377903 </i>
    <i name="e_wo_entrp">   -101.49377903 </i>
    <i name="e_0_energy">   -101.49377903 </i>
   </energy>
  </scstep>
  <structure>
   <crystal>
    <varray name="basis" >
     <v>      15.40225029       0.00000000       0.00000000 </v>
     <v>       0.00000000      15.40225029       0.00000000 </v>
     <v>       0.00000000       0.00000000      15.40225029 </v>
    </varray>
    <i name="volume">   3653.86527022 </i>
    <varray name="rec_basis" >
     <v>       0.06492558       0.00000000       0.00000000 </v>
     <v>       0.00000000       0.06492558       0.00000000 </v>
     <v>       0.00000000       0.00000000       0.06492558 </v>
    </varray>
   </crystal>
   <varray name="positions" >
    <v>       0.33787878       0.43884050       0.57663045 </v>
    <v>       0.33589005       0.53341791       0.57919670 </v>
    <v>       0.40405826       0.58535944       0.56176159 </v>
    <v>       0.40872098       0.39121968       0.55755518 </v>
    <v>       0.44302514       0.44024255       0.38463205 </v>
    <v>       0.44186126       0.52748465       0.38904946 </v>
    <v>       0.51816849       0.57930365       0.38488600 </v>
    <v>       0.27563976       0.40611152       0.58680075 </v>
    <v>       0.47169432       0.42225814       0.54852793 </v>
    <v>       0.40651021       0.32099327       0.54959376 </v>
    <v>       0.27251187       0.56289552       0.59167048 </v>
    <v>       0.46848304       0.55896564       0.54893859 </v>
    <v>       0.39819035       0.65568198       0.55749793 </v>
    <v>       0.38331495       0.40312825       0.39053099 </v>
    <v>       0.50342955       0.40437495       0.37597611 </v>
    <v>       0.38152966       0.56273274       0.40043816 </v>
    <v>       0.57992410       0.62359195       0.38293817 </v>
   </varray>
  </structure>
  <varray name="forces" >
   <v>      -0.01805318      -0.00380923       0.01516035 </v>
   <v>      -0.00507477       0.01329852       0.01525301 </v>
   <v>      -0.01363358       0.03761680       0.09421851 </v>
   <v>       0.00572473      -0.03578521       0.09236613 </v>
   <v>       0.00242007      -0.00567437      -0.10375125 </v>
   <v>       0.00765597       0.01738852      -0.15501334 </v>
   <v>       0.01549177       0.00765687      -0.08080039 </v>
   <v>       0.01814280      -0.03785743      -0.00595937 </v>
   <v>       0.06922619      -0.11138438       0.08006072 </v>
   <v>      -0.04097481      -0.05754382       0.13842255 </v>
   <v>      -0.01001110       0.03596201       0.02282868 </v>
   <v>       0.03208591       0.06740066       0.14567207 </v>
   <v>      -0.05174649       0.06575971       0.13102758 </v>
   <v>      -0.03788103       0.00407569      -0.16691943 </v>
   <v>       0.02490644      -0.01417448      -0.01811845 </v>
   <v>      -0.02866371       0.00639972      -0.19704545 </v>
   <v>       0.03038478       0.01067043      -0.00740192 </v>
  </varray>
  <varray name="stress" >
   <v>      -0.68612546      -0.01495178      -0.04948233 </v>
   <v>      -0.01495178      -0.46377083      -0.01387025 </v>
   <v>      -0.04948232      -0.01387025      -0.09921911 </v>
  </varray>
  <energy>
   <i name="e_fr_energy">   -101.72023903 </i>
   <i name="e_wo_entrp">   -101.72023903 </i>
   <i name="e_0_energy">   -101.72023903 </i>
  </energy>
  <time name="totalsc">   39.10   48.73</time>
 </calculation>
 <calculation>
  <scstep>
   <time name="dav">    1.41    1.51</time>
   <time name="total">    2.91    3.04</time>
   <energy>
    <i name="alphaZ">      2.15216506 </i>
    <i name="ewald">   2216.23369400 </i>
    <i name="hartreedc">  -3346.89433771 </i>
    <i name="XCdc">    139.04645714 </i>
    <i name="pawpsdc">   3479.42088494 </i>
    <i name="pawaedc">  -3485.76918080 </i>
    <i name="eentropy">     -0.00000000 </i>
    <i name="bandstr">   -512.36078657 </i>
    <i name="atom">   1406.67326350 </i>
    <i name="e_fr_energy">   -101.49784045 </i>
    <i name="e_wo_entrp">   -101.49784045 </i>
    <i name="e_0_energy">   -101.49784045 </i>
   </energy>
  </scstep>
  <scstep>
   <time name="diag">    0.24    0.24</time>
   <time name="diis">    1.43    2.16</time>
   <time name="orth">    0.02    0.02</time>
   <time name="total">    3.05    3.94</time>
   <energy>
    <i name="e_fr_energy">   -101.49869316 </i>
    <i name="e_wo_entrp">   -101.49869316 </i>
    <i name="e_0_energy">   -101.49869316 </i>
   </energy>
  </scstep>
  <scstep>
   <time name="diag">    0.31    0.42</time>
   <time name="diis">    2.29    2.59</time>
   <time name="orth">    0.02    0.07</time>
   <time name="total">    5.02    5.63</time>
   <energy>
    <i name="e_fr_energy">   -101.49879332 </i>
    <i name="e_wo_entrp">   -101.49879332 </i>
    <i name="e_0_energy">   -101.49879332 </i>
   </energy>
  </scstep>
  <scstep>
   <time name="diag">    0.41    0.81</time>
   <time name="diis">    1.70    2.83</time>
   <time name="orth">    0.01    0.02</time>
   <time name="total">    4.15    6.90</time>
   <energy>
    <i name="e_fr_energy">   -101.49885147 </i>
    <i name="e_wo_entrp">   -101.49885147 </i>
    <i name="e_0_energy">   -101.49885147 </i>
   </energy>
  </scstep>
  <scstep>
   <time name="diag">    0.37    0.70</time>
   <time name="diis">    1.26    2.39</time>
   <time name="orth">    0.03    0.09</time>
   <time name="total">    4.16    6.21</time>
   <energy>
    <i name="e_fr_energy">   -101.49886593 </i>
    <i name="e_wo_entrp">   -101.49886593 </i>
    <i name="e_0_energy">   -101.49886593 </i>
   </energy>
  </scstep>
  <scstep>
   <time name="diag">    0.11    0.18</time>
   <time name="diis">    0.36    0.46</time>
   <time name="orth">    0.00    0.00</time>
   <time name="total">    1.76    2.09</time>
   <energy>
    <i name="alphaZ">      2.15216506 </i>
    <i name="ewald">   2216.23369400 </i>
    <i name="hartreedc">  -3346.87279632 </i>
    <i name="XCdc">    139.04750512 </i>
    <i name="pawpsdc">   3478.08449621 </i>
    <i name="pawaedc">  -3484.43200457 </i>
    <i name="eentropy">     -0.00000000 </i>
    <i name="bandstr">   -512.38519583 </i>
    <i name="atom">   1406.67326350 </i>
    <i name="e_fr_energy">   -101.49887284 </i>
    <i name="e_wo_entrp">   -101.49887284 </i>
    <i name="e_0_energy">   -101.49887284 </i>
   </energy>
  </scstep>
  <structure>
   <crystal>
    <varray name="basis" >
     <v>      15.40225029       0.00000000       0.00000000 </v>
     <v>       0.00000000      15.40225029       0.00000000 </v>
     <v>       0.00000000       0.00000000      15.40225029 </v>
    </varray>
    <i name="volume">   3653.86527022 </i>
    <varray name="rec_basis" >
     <v>       0.06492558       0.00000000       0.00000000 </v>
     <v>       0.00000000       0.06492558       0.00000000 </v>
     <v>       0.00000000       0.00000000       0.06492558 </v>
    </varray>
   </crystal>
   <varray name="positions" >
    <v>       0.33790011       0.43885108       0.57663073 </v>
    <v>       0.33593542       0.53344730       0.57920036 </v>
    <v>       0.40407125       0.58540437       0.56168878 </v>
    <v>       0.40869349       0.39117200       0.55746937 </v>
    <v>       0.44272400       0.44024990       0.38420021 </v>
    <v>       0.44160025       0.52749529       0.38859497 </v>
    <v>       0.51790586       0.57929623       0.38436493 </v>
    <v>       0.27569963       0.40608616       0.58695206 </v>
    <v>       0.47173518       0.42204792       0.54831394 </v>
    <v>       0.40639744       0.32093887       0.54958105 </v>
    <v>       0.27260616       0.56297828       0.59185757 </v>
    <v>       0.46851413       0.55906320       0.54882112 </v>
    <v>       0.39816636       0.65573547       0.55748485 </v>
    <v>       0.38298993       0.40315721       0.39007820 </v>
    <v>       0.50310849       0.40436960       0.37547294 </v>
    <v>       0.38126521       0.56272450       0.40003911 </v>
    <v>       0.57970590       0.62356036       0.38240522 </v>
   </varray>
  </structure>
  <varray name="forces" >
   <v>      -0.00630761      -0.00396200       0.01439028 </v>
   <v>      -0.00730389       0.01079013       0.01736898 </v>
   <v>      -0.00955537       0.03905592       0.09248338 </v>
   <v>       0.00366751      -0.03455907       0.09006745 </v>
   <v>       0.00197309      -0.00297946      -0.10690357 </v>
   <v>      -0.00036640       0.01055267      -0.14820087 </v>
   <v>       0.05006876       0.03044265      -0.07739901 </v>
   <v>       0.01779498      -0.03210994      -0.00772651 </v>
   <v>       0.06241946      -0.10345128       0.07844252 </v>
   <v>      -0.04344823      -0.05799263       0.13787484 </v>
   <v>      -0.00796099       0.02928263       0.01799820 </v>
   <v>       0.02886681       0.06505980       0.13963186 </v>
   <v>      -0.05130616       0.06155320       0.13123111 </v>
   <v>      -0.03511525       0.00570217      -0.16162207 </v>
   <v>       0.02470706      -0.01569961      -0.01738436 </v>
   <v>      -0.02732751       0.00954589      -0.19500902 </v>
   <v>      -0.00080627      -0.01123107      -0.00524321 </v>
  </varray>
  <varray name="stress" >
   <v>      -0.71023561      -0.02097232      -0.04505174 </v>
   <v>      -0.02097232      -0.48535674      -0.01359791 </v>
   <v>      -0.04505175      -0.01359791      -0.11490205 </v>
  </varray>
  <energy>
   <i name="e_fr_energy">   -101.72521845 </i>
   <i name="e_wo_entrp">   -101.72521845 </i>
   <i name="e_0_energy">   -101.72521845 </i>
  </energy>
  <time name="totalsc">   38.27   49.50</time>
 </calculation>
 <calculation>
  <scstep>
   <time name="dav">    1.66    2.37</time>
   <time name="total">    3.23    4.64</time>
   <energy>
    <i name="alphaZ">      2.15216506 </i>
    <i name="ewald">   2213.15245566 </i>
    <i name="hartreedc">  -3343.89507145 </i>
    <i name="XCdc">    139.02892508 </i>
    <i name="pawpsdc">   3478.10132694 </i>
    <i name="pawaedc">  -3484.44880190 </i>
    <i name="eentropy">     -0.00000000 </i>
    <i name="bandstr">   -512.26811114 </i>
    <i name="atom">   1406.67326350 </i>
    <i name="e_fr_energy">   -101.50384825 </i>
    <i name="e_wo_entrp">   -101.50384825 </i>
    <i name="e_0_energy">   -101.50384825 </i>
   </energy>
  </scstep>
  <scstep>
   <time name="diag">    0.41    0.63</time>
   <time name="diis">    2.03    3.22</time>
   <time name="orth">    0.02    0.03</time>
   <time name="total">    4.07    6.54</time>
   <energy>
    <i name="e_fr_energy">   -101.50540538 </i>
    <i name="e_wo_entrp">   -101.50540538 </i>
    <i name="e_0_energy">   -101.50540538 </i>
   </energy>
  </scstep>
  <scstep>
   <time name="diag">    0.42    0.50</time>
   <time name="diis">    2.78    3.02</time>
   <time name="orth">    0.04    0.04</time>
   <time name="total">    5.43    6.16</time>
   <energy>
    <i name="e_fr_energy">   -101.50556908 </i>
    <i name="e_wo_entrp">   -101.50556908 </i>
    <i name="e_0_energy">   -101.50556908 </i>
   </energy>
  </scstep>
  <scstep>
   <time name="diag">    0.31    0.37</time>
   <time name="diis">    1.87    2.17</time>
   <time name="orth">    0.01    0.01</time>
   <time name="total">    3.49    4.25</time>
   <energy>
    <i name="e_fr_energy">   -101.50567753 </i>
    <i name="e_wo_entrp">   -101.50567753 </i>
    <i name="e_0_energy">   -101.50567753 </i>
   </energy>
  </scstep>
  <scstep>
   <time name="diag">    0.67    0.67</time>
   <time name="diis">    0.95    1.55</time>
   <time name="orth">    0.02    0.02</time>
   <time name="total">    3.64    5.15</time>
   <energy>
    <i name="e_fr_energy">   -101.50569120 </i>
    <i name="e_wo_entrp">   -101.50569120 </i>
    <i name="e_0_energy">   -101.50569120 </i>
   </energy>
  </scstep>
  <scstep>
   <time name="diag">    0.19    0.28</time>
   <time name="diis">    0.59    1.02</time>
   <time name="orth">    0.01    0.01</time>
   <time name="total">    1.52    2.47</time>
   <energy>
    <i name="alphaZ">      2.15216506 </i>
    <i name="ewald">   2213.15245566 </i>
    <i name="hartreedc">  -3343.86092089 </i>
    <i name="XCdc">    139.03078553 </i>
    <i name="pawpsdc">   3476.35898272 </i>
    <i name="pawaedc">  -3482.70588440 </i>
    <i name="eentropy">     -0.00000000 </i>
    <i name="bandstr">   -512.30654630 </i>
    <i name="atom">   1406.67326350 </i>
[...]
   <v>       0.00044638       0.00363077      -0.06448087 </v>
   <v>       0.00153362       0.00263330      -0.01685843 </v>
   <v>       0.00138754       0.00492377      -0.07635491 </v>
   <v>      -0.00398881      -0.00964870      -0.00371335 </v>
  </varray>
  <varray name="stress" >
   <v>      -0.79282353       0.00354100      -0.03493850 </v>
   <v>       0.00354100      -0.78280333      -0.01069580 </v>
   <v>      -0.03493849      -0.01069580      -0.57999994 </v>
  </varray>
  <energy>
   <i name="e_fr_energy">   -101.86327506 </i>
   <i name="e_wo_entrp">   -101.86327506 </i>
   <i name="e_0_energy">   -101.86327506 </i>
  </energy>
  <time name="totalsc">   20.72   28.82</time>
 </calculation>
 <calculation>
  <scstep>
   <time name="dav">    1.82    2.80</time>
   <time name="total">    3.67    5.08</time>
   <energy>
    <i name="alphaZ">      2.15216506 </i>
    <i name="ewald">   2134.94232725 </i>
    <i name="hartreedc">  -3266.55608985 </i>
    <i name="XCdc">    138.84583239 </i>
    <i name="pawpsdc">   3468.81101469 </i>
    <i name="pawaedc">  -3475.15328830 </i>
    <i name="eentropy">     -0.00000000 </i>
    <i name="bandstr">   -511.36333525 </i>
    <i name="atom">   1406.67326350 </i>
    <i name="e_fr_energy">   -101.64811052 </i>
    <i name="e_wo_entrp">   -101.64811052 </i>
    <i name="e_0_energy">   -101.64811052 </i>
   </energy>
  </scstep>
  <scstep>
   <time name="diag">    0.37    0.37</time>
   <time name="diis">    1.56    3.01</time>
   <time name="orth">    0.03    0.07</time>
   <time name="total">    3.53    5.73</time>
   <energy>
    <i name="e_fr_energy">   -101.64817717 </i>
    <i name="e_wo_entrp">   -101.64817717 </i>
    <i name="e_0_energy">   -101.64817717 </i>
   </energy>
  </scstep>
  <scstep>
   <time name="diag">    0.21    0.21</time>
   <time name="diis">    1.51    2.02</time>
   <time name="orth">    0.02    0.02</time>
   <time name="total">    3.04    4.28</time>
   <energy>
    <i name="e_fr_energy">   -101.64819678 </i>
    <i name="e_wo_entrp">   -101.64819678 </i>
    <i name="e_0_energy">   -101.64819678 </i>
   </energy>
  </scstep>
  <scstep>
   <time name="diag">    0.13    0.13</time>
   <time name="diis">    0.60    0.61</time>
   <time name="orth">    0.00    0.00</time>
   <time name="total">    1.41    1.43</time>
   <energy>
    <i name="alphaZ">      2.15216506 </i>
    <i name="ewald">   2134.94232725 </i>
    <i name="hartreedc">  -3266.56980344 </i>
    <i name="XCdc">    138.84776599 </i>
    <i name="pawpsdc">   3468.95447707 </i>
    <i name="pawaedc">  -3475.29698924 </i>
    <i name="eentropy">     -0.00000000 </i>
    <i name="bandstr">   -511.35141155 </i>
    <i name="atom">   1406.67326350 </i>
    <i name="e_fr_energy">   -101.64820536 </i>
    <i name="e_wo_entrp">   -101.64820536 </i>
    <i name="e_0_energy">   -101.64820536 </i>
   </energy>
  </scstep>
  <structure>
   <crystal>
    <varray name="basis" >
     <v>      15.40225029       0.00000000       0.00000000 </v>
     <v>       0.00000000      15.40225029       0.00000000 </v>
     <v>       0.00000000       0.00000000      15.40225029 </v>
    </varray>
    <i name="volume">   3653.86527022 </i>
    <varray name="rec_basis" >
     <v>       0.06492558       0.00000000       0.00000000 </v>
     <v>       0.00000000       0.06492558       0.00000000 </v>
     <v>       0.00000000       0.00000000       0.06492558 </v>
    </varray>
   </crystal>
   <varray name="positions" >
    <v>       0.33730090       0.43892048       0.57882008 </v>
    <v>       0.33585163       0.53375319       0.58150595 </v>
    <v>       0.40386943       0.58729571       0.56937455 </v>
    <v>       0.40699676       0.38818735       0.56426601 </v>
    <v>       0.44701220       0.44045206       0.37827550 </v>
    <v>       0.44418384       0.52761195       0.38152983 </v>
    <v>       0.51974325       0.58081506       0.38037381 </v>
    <v>       0.27431718       0.40718852       0.58772723 </v>
    <v>       0.47206859       0.41493433       0.55567627 </v>
    <v>       0.40098449       0.31771965       0.56079126 </v>
    <v>       0.27201292       0.56297657       0.59262860 </v>
    <v>       0.46969619       0.56333765       0.55863446 </v>
    <v>       0.39583996       0.65764310       0.56965851 </v>
    <v>       0.38744810       0.40250029       0.38090257 </v>
    <v>       0.50836844       0.40535937       0.37372675 </v>
    <v>       0.38249950       0.56196525       0.38795870 </v>
    <v>       0.58083350       0.62605316       0.38046507 </v>
   </varray>
  </structure>
  <varray name="forces" >
   <v>       0.00100767      -0.00197619       0.01205654 </v>
   <v>       0.00023580      -0.00027411       0.01103571 </v>
   <v>      -0.00043326       0.00468523       0.03086012 </v>
   <v>       0.00144888      -0.00703950       0.03293325 </v>
   <v>       0.00103433       0.00464196      -0.04152901 </v>
   <v>       0.00241014       0.00369358      -0.04549409 </v>
   <v>      -0.01149977      -0.01120076      -0.02101894 </v>
   <v>      -0.00235260       0.00114992       0.00343128 </v>
   <v>       0.00431078      -0.01242962       0.04029766 </v>
   <v>      -0.00382344      -0.00679400       0.04850327 </v>
   <v>      -0.00356843      -0.00333427       0.00090751 </v>
   <v>       0.00347459       0.01123917       0.03929842 </v>
   <v>      -0.00701033       0.00359878       0.04563172 </v>
   <v>       0.00045858       0.00308017      -0.06272314 </v>
   <v>       0.00038056       0.00308828      -0.01684244 </v>
   <v>       0.00105302       0.00485511      -0.07399868 </v>
   <v>       0.01287349       0.00301623      -0.00334918 </v>
  </varray>
  <varray name="stress" >
   <v>      -0.78909440       0.00810208      -0.03569947 </v>
   <v>       0.00810209      -0.78222132      -0.01052648 </v>
   <v>      -0.03569947      -0.01052648      -0.59068222 </v>
  </varray>
  <energy>
   <i name="e_fr_energy">   -101.86515625 </i>
   <i name="e_wo_entrp">   -101.86515625 </i>
   <i name="e_0_energy">   -101.86515625 </i>
  </energy>
  <time name="totalsc">   19.39   26.32</time>
 </calculation>
 <calculation>
  <scstep>
   <time name="dav">    2.11    3.73</time>
   <time name="total">    3.63    6.17</time>
   <energy>
    <i name="alphaZ">      2.15216506 </i>
    <i name="ewald">   2135.88478453 </i>
    <i name="hartreedc">  -3267.50887193 </i>
    <i name="XCdc">    138.84920532 </i>
    <i name="pawpsdc">   3468.95428942 </i>
    <i name="pawaedc">  -3475.29673885 </i>
    <i name="eentropy">     -0.00000000 </i>
    <i name="bandstr">   -511.35515278 </i>
    <i name="atom">   1406.67326350 </i>
    <i name="e_fr_energy">   -101.64705573 </i>
    <i name="e_wo_entrp">   -101.64705573 </i>
    <i name="e_0_energy">   -101.64705573 </i>
   </energy>
  </scstep>
  <scstep>
   <time name="diag">    0.20    0.20</time>
   <time name="diis">    0.93    1.22</time>
   <time name="orth">    0.01    0.01</time>
   <time name="total">    2.56    2.94</time>
   <energy>
    <i name="e_fr_energy">   -101.64707063 </i>
    <i name="e_wo_entrp">   -101.64707063 </i>
    <i name="e_0_energy">   -101.64707063 </i>
   </energy>
  </scstep>
  <scstep>
   <time name="diag">    0.14    0.21</time>
   <time name="diis">    0.60    0.84</time>
   <time name="orth">    0.00    0.00</time>
   <time name="total">    1.73    2.35</time>
   <energy>
    <i name="e_fr_energy">   -101.64707570 </i>
    <i name="e_wo_entrp">   -101.64707570 </i>
    <i name="e_0_energy">   -101.64707570 </i>
   </energy>
  </scstep>
  <scstep>
   <time name="diag">    0.07    0.08</time>
   <time name="diis">    0.28    0.63</time>
   <time name="orth">    0.00    0.00</time>
   <time name="total">    0.79    1.44</time>
   <energy>
    <i name="alphaZ">      2.15216506 </i>
    <i name="ewald">   2135.88478453 </i>
    <i name="hartreedc">  -3267.50742830 </i>
    <i name="XCdc">    138.84821252 </i>
    <i name="pawpsdc">   3469.08033958 </i>
    <i name="pawaedc">  -3475.42268045 </i>
    <i name="eentropy">     -0.00000000 </i>
    <i name="bandstr">   -511.35573496 </i>
    <i name="atom">   1406.67326350 </i>
    <i name="e_fr_energy">   -101.64707852 </i>
    <i name="e_wo_entrp">   -101.64707852 </i>
    <i name="e_0_energy">   -101.64707852 </i>
   </energy>
  </scstep>
  <structure>
   <crystal>
    <varray name="basis" >
     <v>      15.40225029       0.00000000       0.00000000 </v>
     <v>       0.00000000      15.40225029       0.00000000 </v>
     <v>       0.00000000       0.00000000      15.40225029 </v>
    </varray>
    <i name="volume">   3653.86527022 </i>
    <varray name="rec_basis" >
     <v>       0.06492558       0.00000000       0.00000000 </v>
     <v>       0.00000000       0.06492558       0.00000000 </v>
     <v>       0.00000000       0.00000000       0.06492558 </v>
    </varray>
   </crystal>
   <varray name="positions" >
    <v>       0.33731746       0.43892131       0.57877916 </v>
    <v>       0.33585947       0.53375350       0.58146753 </v>
    <v>       0.40387267       0.58728756       0.56926494 </v>
    <v>       0.40701864       0.38821299       0.56415522 </v>
    <v>       0.44694117       0.44044910       0.37834607 </v>
    <v>       0.44413762       0.52760991       0.38161138 </v>
    <v>       0.51970099       0.58079390       0.38040165 </v>
    <v>       0.27434670       0.40717264       0.58772168 </v>
    <v>       0.47207507       0.41498851       0.55554443 </v>
    <v>       0.40103306       0.31774538       0.56063914 </v>
    <v>       0.27202871       0.56298047       0.59262929 </v>
    <v>       0.46968774       0.56331181       0.55849640 </v>
    <v>       0.39585833       0.65763685       0.56950317 </v>
    <v>       0.38737081       0.40251313       0.38102256 </v>
    <v>       0.50828162       0.40533859       0.37373730 </v>
    <v>       0.38246658       0.56196950       0.38810986 </v>
    <v>       0.58080583       0.62602548       0.38045580 </v>
   </varray>
  </structure>
  <varray name="forces" >
   <v>      -0.00008226      -0.00104880       0.01066692 </v>
   <v>      -0.00065303      -0.00117756       0.00919752 </v>
   <v>      -0.00113313       0.00389492       0.03068062 </v>
   <v>       0.00025461      -0.00657925       0.03290697 </v>
   <v>       0.00055687       0.00384127      -0.03992334 </v>
   <v>       0.00248140       0.00220300      -0.04497680 </v>
   <v>       0.00196714      -0.00052301      -0.02121048 </v>
   <v>      -0.00264790       0.00133585       0.00255871 </v>
   <v>       0.00392432      -0.01368612       0.04135326 </v>
   <v>      -0.00463213      -0.00723672       0.05032553 </v>
   <v>      -0.00389903      -0.00401009      -0.00043928 </v>
   <v>       0.00311024       0.01185014       0.04055597 </v>
   <v>      -0.00762782       0.00322380       0.04747059 </v>
   <v>       0.00065442       0.00371505      -0.06410774 </v>
   <v>       0.00114895       0.00259292      -0.01672308 </v>
   <v>       0.00129393       0.00443007      -0.07636517 </v>
   <v>       0.00528344      -0.00282547      -0.00197022 </v>
  </varray>
  <varray name="stress" >
   <v>      -0.78978966       0.00575833      -0.03206057 </v>
   <v>       0.00575832      -0.78201503      -0.00998765 </v>
   <v>      -0.03206057      -0.00998765      -0.58588673 </v>
  </varray>
  <energy>
   <i name="e_fr_energy">   -101.86420557 </i>
   <i name="e_wo_entrp">   -101.86420557 </i>
   <i name="e_0_energy">   -101.86420557 </i>
  </energy>
  <time name="totalsc">   14.97   21.20</time>
 </calculation>
 <calculation>
  <scstep>
   <time name="dav">    2.07    2.39</time>
   <time name="total">    3.38    3.98</time>
   <energy>
    <i name="alphaZ">      2.15216506 </i>
    <i name="ewald">   2135.39728682 </i>
    <i name="hartreedc">  -3267.02909821 </i>
    <i name="XCdc">    138.84720520 </i>
    <i name="pawpsdc">   3469.00857279 </i>
    <i name="pawaedc">  -3475.35095352 </i>
    <i name="eentropy">     -0.00000000 </i>
    <i name="bandstr">   -511.34609082 </i>
    <i name="atom">   1406.67326350 </i>
    <i name="e_fr_energy">   -101.64764918 </i>
    <i name="e_wo_entrp">   -101.64764918 </i>
    <i name="e_0_energy">   -101.64764918 </i>
   </energy>
  </scstep>
  <scstep>
   <time name="diag">    0.31    0.39</time>
   <time name="diis">    0.98    1.87</time>
   <time name="orth">    0.01    0.01</time>
   <time name="total">    3.36    5.03</time>
   <energy>
    <i name="e_fr_energy">   -101.64765304 </i>
    <i name="e_wo_entrp">   -101.64765304 </i>
    <i name="e_0_energy">   -101.64765304 </i>
   </energy>
  </scstep>
  <scstep>
   <time name="diag">    0.08    0.15</time>
   <time name="diis">    0.41    0.49</time>
   <time name="orth">    0.00    0.00</time>
   <time name="total">    1.53    2.17</time>
   <energy>
    <i name="alphaZ">      2.15216506 </i>
    <i name="ewald">   2135.39728682 </i>
    <i name="hartreedc">  -3267.02704529 </i>
    <i name="XCdc">    138.84749067 </i>
    <i name="pawpsdc">   3468.85095604 </i>
    <i name="pawaedc">  -3475.19328428 </i>
    <i name="eentropy">     -0.00000000 </i>
    <i name="bandstr">   -511.34848683 </i>
    <i name="atom">   1406.67326350 </i>
    <i name="e_fr_energy">   -101.64765431 </i>
    <i name="e_wo_entrp">   -101.64765431 </i>
    <i name="e_0_energy">   -101.64765431 </i>
   </energy>
  </scstep>
  <structure>
   <crystal>
    <varray name="basis" >
     <v>      15.40225029       0.00000000       0.00000000 </v>
     <v>       0.00000000      15.40225029       0.00000000 </v>
     <v>       0.00000000       0.00000000      15.40225029 </v>
    </varray>
    <i name="volume">   3653.86527022 </i>
    <varray name="rec_basis" >
     <v>       0.06492558       0.00000000       0.00000000 </v>
     <v>       0.00000000       0.06492558       0.00000000 </v>
     <v>       0.00000000       0.00000000       0.06492558 </v>
    </varray>
   </crystal>
   <varray name="positions" >
    <v>       0.33730880       0.43892080       0.57879947 </v>
    <v>       0.33585531       0.53375341       0.58148672 </v>
    <v>       0.40387103       0.58729166       0.56931986 </v>
    <v>       0.40700752       0.38819998       0.56421053 </v>
    <v>       0.44697742       0.44045160       0.37831114 </v>
    <v>       0.44416220       0.52761133       0.38157064 </v>
    <v>       0.51971853       0.58080196       0.38038775 </v>
    <v>       0.27433139       0.40718030       0.58772489 </v>
    <v>       0.47207154       0.41496122       0.55561211 </v>
    <v>       0.40100888       0.31773223       0.56071624 </v>
    <v>       0.27202044       0.56297896       0.59262937 </v>
    <v>       0.46969193       0.56332444       0.55856699 </v>
    <v>       0.39584953       0.65764014       0.56958154 </v>
    <v>       0.38741089       0.40250678       0.38096182 </v>
    <v>       0.50832521       0.40534937       0.37373172 </v>
    <v>       0.38248404       0.56196645       0.38803331 </v>
    <v>       0.58082261       0.62604155       0.38046122 </v>
   </varray>
  </structure>
  <varray name="forces" >
   <v>       0.00106409      -0.00161921       0.01190746 </v>
   <v>       0.00004739      -0.00050949       0.01054421 </v>
   <v>      -0.00044355       0.00451755       0.03188204 </v>
   <v>       0.00130352      -0.00675631       0.03417426 </v>
   <v>       0.00025967       0.00373257      -0.04120494 </v>
   <v>      -0.00036606       0.00192557      -0.04557223 </v>
   <v>       0.00716038       0.00289267      -0.02112798 </v>
   <v>      -0.00199781       0.00129275       0.00329384 </v>
   <v>       0.00447461      -0.01271698       0.04018816 </v>
   <v>      -0.00394261      -0.00675622       0.04916508 </v>
   <v>      -0.00330464      -0.00371732       0.00042553 </v>
   <v>       0.00339685       0.01158822       0.03934492 </v>
   <v>      -0.00715075       0.00336058       0.04622037 </v>
   <v>       0.00034516       0.00360306      -0.06320383 </v>
   <v>       0.00065593       0.00292682      -0.01683551 </v>
   <v>       0.00094233       0.00479610      -0.07492316 </v>
   <v>      -0.00244450      -0.00856035      -0.00427823 </v>
  </varray>
  <varray name="stress" >
   <v>      -0.79223155       0.00459467      -0.03425431 </v>
   <v>       0.00459467      -0.78359899      -0.01050671 </v>
   <v>      -0.03425431      -0.01050671      -0.58830300 </v>
  </varray>
  <energy>
   <i name="e_fr_energy">   -101.86469210 </i>
   <i name="e_wo_entrp">   -101.86469210 </i>
   <i name="e_0_energy">   -101.86469210 </i>
  </energy>
  <time name="totalsc">   14.71   18.75</time>
  <eigenvalues>
   <array>
    <dimension dim="1">band</dimension>
    <dimension dim="2">kpoint</dimension>
    <dimension dim="3">spin</dimension>
    <field>eigene</field>
    <field>occ</field>
    <set>
     <set comment="spin 1">
      <set comment="kpoint 1">
       <r>  -22.3717    1.0000 </r>
       <r>  -20.1025    1.0000 </r>
       <r>  -19.8961    1.0000 </r>
       <r>  -18.0655    1.0000 </r>
       <r>  -16.0028    1.0000 </r>
       <r>  -15.4014    1.0000 </r>
       <r>  -13.0047    1.0000 </r>
       <r>  -12.9038    1.0000 </r>
       <r>  -12.1409    1.0000 </r>
       <r>  -11.4474    1.0000 </r>
       <r>  -10.8125    1.0000 </r>
       <r>  -10.1820    1.0000 </r>
       <r>   -9.7591    1.0000 </r>
       <r>   -9.2131    1.0000 </r>
       <r>   -8.7129    1.0000 </r>
       <r>   -8.4922    1.0000 </r>
       <r>   -8.3388    1.0000 </r>
       <r>   -8.1460    1.0000 </r>
       <r>   -7.9681    1.0000 </r>
       <r>   -6.8278    1.0000 </r>
       <r>   -5.8850    1.0000 </r>
       <r>   -2.3749    0.0000 </r>
       <r>   -2.2226    0.0000 </r>
       <r>   -0.6860    0.0000 </r>
       <r>   -0.2379    0.0000 </r>
       <r>   -0.0902    0.0000 </r>
       <r>    0.0774    0.0000 </r>
       <r>    0.3018    0.0000 </r>
       <r>    0.4150    0.0000 </r>
       <r>    0.4986    0.0000 </r>
      </set>
     </set>
    </set>
   </array>
  </eigenvalues>
  <separator name="orbital magnetization" >
   <v name="MAGDIPOLOUT">      0.00000000      0.00000000      0.00000000</v>
  </separator>
 </calculation>
 <structure name="finalpos" >
  <crystal>
   <varray name="basis" >
    <v>      15.40225029       0.00000000       0.00000000 </v>
    <v>       0.00000000      15.40225029       0.00000000 </v>
    <v>       0.00000000       0.00000000      15.40225029 </v>
   </varray>
   <i name="volume">   3653.86527022 </i>
   <varray name="rec_basis" >
    <v>       0.06492558       0.00000000       0.00000000 </v>
    <v>       0.00000000       0.06492558       0.00000000 </v>
    <v>       0.00000000       0.00000000       0.06492558 </v>
   </varray>
  </crystal>
  <varray name="positions" >
   <v>       0.33730880       0.43892080       0.57879947 </v>
   <v>       0.33585531       0.53375341       0.58148672 </v>
   <v>       0.40387103       0.58729166       0.56931986 </v>
   <v>       0.40700752       0.38819998       0.56421053 </v>
   <v>       0.44697742       0.44045160       0.37831114 </v>
   <v>       0.44416220       0.52761133       0.38157064 </v>
   <v>       0.51971853       0.58080196       0.38038775 </v>
   <v>       0.27433139       0.40718030       0.58772489 </v>
   <v>       0.47207154       0.41496122       0.55561211 </v>
   <v>       0.40100888       0.31773223       0.56071624 </v>
   <v>       0.27202044       0.56297896       0.59262937 </v>
   <v>       0.46969193       0.56332444       0.55856699 </v>
   <v>       0.39584953       0.65764014       0.56958154 </v>
   <v>       0.38741089       0.40250678       0.38096182 </v>
   <v>       0.50832521       0.40534937       0.37373172 </v>
   <v>       0.38248404       0.56196645       0.38803331 </v>
   <v>       0.58082261       0.62604155       0.38046122 </v>
  </varray>
 </structure>
</modeling>
