unknown system                          
           1
    15.402250    0.000000    0.000000
     0.000000   15.402250    0.000000
     0.000000    0.000000   15.402250
   C    H    N 
     7     9     1
Direct configuration=     1
   0.33640521  0.44163629  0.56655582
   0.33591225  0.52832280  0.57298262
   0.41557417  0.58038650  0.55598477
   0.41415094  0.39054052  0.54009358
   0.49332274  0.44461995  0.51169190
   0.46950244  0.53664089  0.48406204
   0.54697402  0.58661610  0.46440071
   0.27823398  0.40395809  0.58050452
   0.43526410  0.34786099  0.59319258
   0.39580418  0.34574433  0.48803630
   0.27646088  0.56200073  0.59097183
   0.45815348  0.58419860  0.61286603
   0.39950913  0.64748114  0.53894403
   0.52838358  0.41156414  0.45936295
   0.53883474  0.45010100  0.56566184
   0.42970946  0.53360375  0.42523749
   0.61036748  0.62583218  0.45115279
Direct configuration=     2
   0.33638312  0.44168916  0.56659097
   0.33582572  0.52810560  0.57313826
   0.41567548  0.58053380  0.55582744
   0.41434713  0.39051278  0.53999858
   0.49334052  0.44444736  0.51176417
   0.46942015  0.53675347  0.48401443
   0.54701881  0.58661704  0.46437415
   0.27810254  0.40396274  0.58050260
   0.43521932  0.34777594  0.59330627
   0.39570358  0.34564210  0.48788093
   0.27640181  0.56205974  0.59103426
   0.45815108  0.58425122  0.61309900
   0.39949416  0.64757318  0.53886003
   0.52842883  0.41152882  0.45930728
   0.53898594  0.45011076  0.56584003
   0.42960456  0.53362955  0.42505619
   0.61046640  0.62591482  0.45111943
Direct configuration=     3
   0.33636909  0.44152881  0.56661795
   0.33577938  0.52809631  0.57333356
   0.41575370  0.58064721  0.55576006
   0.41448855  0.39039686  0.53990959
   0.49344169  0.44431855  0.51184640
   0.46933820  0.53683338  0.48390954
   0.54718657  0.58668772  0.46430053
   0.27795411  0.40398337  0.58048551
   0.43514875  0.34769084  0.59343804
   0.39558708  0.34552753  0.48771974
   0.27633976  0.56211730  0.59112051
   0.45809755  0.58432689  0.61334536
   0.39946481  0.64772353  0.53873622
   0.52847430  0.41148562  0.45922666
   0.53916464  0.45010940  0.56601850
   0.42947627  0.53367572  0.42483090
   0.61049317  0.62595888  0.45109287
Direct configuration=     4
   0.33637215  0.44149465  0.56663428
   0.33577863  0.52805220  0.57343140
   0.41578074  0.58070995  0.55575630
   0.41453735  0.39030337  0.53987338
   0.49351218  0.44427673  0.51187512
   0.46932209  0.53686495  0.48383799
   0.54716105  0.58665586  0.46427458
   0.27786314  0.40398909  0.58046977
   0.43510658  0.34765181  0.59351013
   0.39552961  0.34546038  0.48764600
   0.27630186  0.56215018  0.59117599
   0.45805021  0.58437410  0.61346753
   0.39945086  0.64780612  0.53866553
   0.52848976  0.41146264  0.45917511
   0.53926500  0.45010082  0.56609338
   0.42940743  0.53370992  0.42470873
   0.61060664  0.62604485  0.45105391
Direct configuration=     5
   0.33637819  0.44149281  0.56664664
   0.33579809  0.52801526  0.57349402
   0.41577872  0.58075232  0.55578794
   0.41453953  0.39021516  0.53986392
   0.49357255  0.44426991  0.51187275
   0.46931777  0.53686158  0.48377975
   0.54722730  0.58669004  0.46422189
   0.27779502  0.40399412  0.58044698
   0.43507375  0.34763420  0.59356478
   0.39549706  0.34540317  0.48761430
   0.27628082  0.56216724  0.59122297
   0.45799564  0.58441535  0.61353947
   0.39944352  0.64786124  0.53861410
   0.52848643  0.41144737  0.45912612
   0.53934079  0.45008355  0.56611133
   0.42936084  0.53374615  0.42462678
   0.61060812  0.62605759  0.45103666
Direct configuration=     6
   0.33636561  0.44140753  0.56666646
   0.33583281  0.52805724  0.57361840
   0.41574295  0.58081291  0.55586464
   0.41450207  0.39007455  0.53988329
   0.49365931  0.44426006  0.51179990
   0.46934498  0.53685379  0.48367175
   0.54724629  0.58670324  0.46409100
   0.27768605  0.40403830  0.58035769
   0.43501188  0.34762784  0.59370094
   0.39545463  0.34524499  0.48761663
   0.27629576  0.56215422  0.59132266
   0.45785290  0.58451713  0.61365926
   0.39943437  0.64794157  0.53852449
   0.52843089  0.41141917  0.45897745
   0.53950950  0.45001580  0.56602595
   0.42928233  0.53385407  0.42449236
   0.61066952  0.62612229  0.45096763
Direct configuration=     7
   0.33634919  0.44141782  0.56670299
   0.33587800  0.52794783  0.57382095
   0.41573048  0.58092935  0.55589615
   0.41450793  0.38988770  0.53989004
   0.49373337  0.44417962  0.51167878
   0.46932860  0.53688495  0.48351628
   0.54731700  0.58675258  0.46385041
   0.27746884  0.40411003  0.58019043
   0.43491392  0.34763280  0.59396574
   0.39538488  0.34493770  0.48765596
   0.27630276  0.56214389  0.59151078
   0.45762056  0.58470149  0.61389941
   0.39941972  0.64806389  0.53837754
   0.52830394  0.41135959  0.45866860
   0.53982084  0.44988045  0.56581943
   0.42914987  0.53405667  0.42427758
   0.61073679  0.62621355  0.45083955
Direct configuration=     8
   0.33633830  0.44137851  0.56670645
   0.33588876  0.52795170  0.57388801
   0.41573541  0.58095562  0.55588755
   0.41451542  0.38984310  0.53989813
   0.49373253  0.44413683  0.51161340
   0.46931282  0.53690974  0.48347011
   0.54732009  0.58676110  0.46375856
   0.27739640  0.40414943  0.58011298
   0.43488235  0.34765898  0.59407456
   0.39536855  0.34480768  0.48771051
   0.27631742  0.56212775  0.59158441
   0.45753227  0.58477454  0.61398312
   0.39941185  0.64809699  0.53832971
   0.52822393  0.41133598  0.45852232
   0.53994099  0.44981374  0.56568253
   0.42910523  0.53414527  0.42421609
   0.61076452  0.62625052  0.45077788
Direct configuration=     9
   0.33632588  0.44132297  0.56670799
   0.33589859  0.52794263  0.57398307
   0.41575722  0.58099890  0.55586519
   0.41454520  0.38977414  0.53989817
   0.49373713  0.44406673  0.51153298
   0.46927349  0.53694972  0.48340331
   0.54738315  0.58680539  0.46363216
   0.27728665  0.40419972  0.58001237
   0.43483837  0.34769734  0.59422656
   0.39533897  0.34462909  0.48777926
   0.27632267  0.56211758  0.59168943
   0.45742001  0.58487363  0.61411135
   0.39939626  0.64815172  0.53825767
   0.52811065  0.41130057  0.45831599
   0.54011194  0.44972350  0.56550908
   0.42903364  0.53426466  0.42411998
   0.61076010  0.62627582  0.45069902
Direct configuration=    10
   0.33632198  0.44132092  0.56669895
   0.33590671  0.52791669  0.57401200
   0.41577387  0.58101688  0.55584883
   0.41456111  0.38974399  0.53990508
   0.49372269  0.44403030  0.51146445
   0.46925758  0.53697740  0.48337230
   0.54734109  0.58678529  0.46358344
   0.27722864  0.40422691  0.57995082
   0.43482309  0.34774700  0.59431240
   0.39533417  0.34452296  0.48785591
   0.27632366  0.56211168  0.59175036
   0.45736471  0.58492670  0.61416632
   0.39938547  0.64816810  0.53822548
   0.52801230  0.41128053  0.45817557
   0.54020454  0.44965999  0.56536220
   0.42899635  0.53433842  0.42408484
   0.61080318  0.62631795  0.45063239
Direct configuration=    11
   0.33631323  0.44129835  0.56668549
   0.33591847  0.52790429  0.57405636
   0.41578553  0.58104195  0.55584019
   0.41457263  0.38969859  0.53991874
   0.49370954  0.44398494  0.51136349
   0.46922899  0.53700044  0.48332625
   0.54740143  0.58683215  0.46348650
   0.27715026  0.40426731  0.57986303
   0.43480139  0.34781493  0.59443579
   0.39532595  0.34437057  0.48796010
   0.27633130  0.56209918  0.59183537
   0.45728385  0.58500222  0.61424090
   0.39936973  0.64819271  0.53817833
   0.52787350  0.41125258  0.45797713
   0.54033704  0.44957006  0.56515729
   0.42894156  0.53444282  0.42403281
   0.61076323  0.62631514  0.45055828
Direct configuration=    12
   0.33630144  0.44127616  0.56665546
   0.33593320  0.52789447  0.57409122
   0.41579704  0.58106560  0.55583261
   0.41457950  0.38965298  0.53994532
   0.49367758  0.44393579  0.51120674
   0.46920770  0.53703310  0.48327082
   0.54736658  0.58682499  0.46339255
   0.27705903  0.40432110  0.57974393
   0.43478498  0.34793066  0.59459944
   0.39532561  0.34416412  0.48812981
   0.27634730  0.56207809  0.59194515
   0.45718854  0.58509755  0.61431680
   0.39934594  0.64821014  0.53812405
   0.52765696  0.41121589  0.45769072
   0.54050626  0.44944035  0.56484188
   0.42887174  0.53458521  0.42398336
   0.61078585  0.62635698  0.45043324
Direct configuration=    13
   0.33629252  0.44127834  0.56663230
   0.33594181  0.52788618  0.57409857
   0.41579470  0.58107567  0.55583502
   0.41457438  0.38963458  0.53996561
   0.49365350  0.44391456  0.51110261
   0.46919698  0.53704430  0.48324277
   0.54736315  0.58683256  0.46334062
   0.27701488  0.40435097  0.57967471
   0.43478382  0.34800983  0.59469499
   0.39533034  0.34404123  0.48824109
   0.27636185  0.56206297  0.59200611
   0.45714138  0.58515001  0.61434572
   0.39933058  0.64821155  0.53809638
   0.52751488  0.41119513  0.45751184
   0.54060116  0.44936022  0.56463864
   0.42883258  0.53466873  0.42396531
   0.61077146  0.62636316  0.45036037
Direct configuration=    14
   0.33628087  0.44127339  0.56660542
   0.33595102  0.52788037  0.57411290
   0.41579430  0.58108856  0.55583467
   0.41457134  0.38961065  0.53998827
   0.49362584  0.44388407  0.51097977
   0.46917959  0.53706014  0.48320812
   0.54737247  0.58684999  0.46327210
   0.27695951  0.40438814  0.57959085
   0.43478020  0.34810222  0.59481153
   0.39533397  0.34389220  0.48837154
   0.27637879  0.56204510  0.59208091
   0.45708260  0.58521485  0.61438584
   0.39931193  0.64821616  0.53806141
   0.52734717  0.41116993  0.45729749
   0.54071833  0.44926431  0.56439839
   0.42878468  0.53476975  0.42394039
   0.61074614  0.62636633  0.45027468
Direct configuration=    15
   0.33626897  0.44127745  0.56657683
   0.33595523  0.52788240  0.57410837
   0.41578837  0.58109046  0.55583654
   0.41456184  0.38960580  0.54000870
   0.49359589  0.44386767  0.51087712
   0.46917250  0.53707146  0.48318931
   0.54732826  0.58683217  0.46324212
   0.27693166  0.40441422  0.57953059
   0.43478858  0.34818616  0.59489644
   0.39534198  0.34378059  0.48848275
   0.27639724  0.56202878  0.59213152
   0.45705300  0.58525823  0.61439643
   0.39929490  0.64820886  0.53804048
   0.52720387  0.41115211  0.45712357
   0.54079906  0.44918829  0.56419766
   0.42875182  0.53484384  0.42393664
   0.61075529  0.62638455  0.45019838
Direct configuration=    16
   0.33625632  0.44128166  0.56654646
   0.33596005  0.52788118  0.57410724
   0.41578319  0.58109476  0.55583683
   0.41455381  0.38959746  0.54002920
   0.49356453  0.44384533  0.51076637
   0.46915439  0.53708053  0.48316903
   0.54735202  0.58685789  0.46319133
   0.27689780  0.40444246  0.57946484
   0.43479576  0.34827620  0.59499043
   0.39534869  0.34365768  0.48860169
   0.27641503  0.56201262  0.59218869
   0.45701913  0.58530691  0.61441195
   0.39927581  0.64820305  0.53801597
   0.52704898  0.41113275  0.45693417
   0.54088993  0.44910530  0.56398229
   0.42871469  0.53492474  0.42392992
   0.61070725  0.62636911  0.45012634
Direct configuration=    17
   0.33623967  0.44129168  0.56650347
   0.33596379  0.52788296  0.57409822
   0.41577543  0.58109633  0.55583603
   0.41454192  0.38959404  0.54005434
   0.49352182  0.44381945  0.51062624
   0.46913752  0.53709477  0.48314849
   0.54731838  0.58685131  0.46314964
   0.27686504  0.40447467  0.57938867
   0.43481146  0.34839497  0.59510202
   0.39535867  0.34350982  0.48875204
   0.27643835  0.56199342  0.59225504
   0.45698971  0.58536279  0.61441867
   0.39924972  0.64819006  0.53798856
   0.52685084  0.41111095  0.45669619
   0.54099645  0.44900246  0.56371175
   0.42867132  0.53502044  0.42393024
   0.61069003  0.62637521  0.45002580
Direct configuration=    18
   0.33622611  0.44129909  0.56646695
   0.33596571  0.52788578  0.57409001
   0.41577118  0.58109651  0.55583347
   0.41453316  0.38959249  0.54007130
   0.49348597  0.44379824  0.51051724
   0.46912035  0.53710582  0.48313534
   0.54730270  0.58685274  0.46311936
   0.27684126  0.40449823  0.57933141
   0.43482621  0.34849316  0.59518895
   0.39536496  0.34339329  0.48887066
   0.27645530  0.56198044  0.59230728
   0.45697267  0.58540660  0.61441871
   0.39922588  0.64817864  0.53796531
   0.52669038  0.41109429  0.45650198
   0.54107954  0.44891952  0.56349552
   0.42863596  0.53509415  0.42393252
   0.61066523  0.62637282  0.44994634
Direct configuration=    19
   0.33621213  0.44130698  0.56642917
   0.33596757  0.52788798  0.57408251
   0.41576602  0.58109776  0.55583099
   0.41452414  0.38958987  0.54008844
   0.49345002  0.44377529  0.51040314
   0.46910137  0.53711589  0.48312124
   0.54729747  0.58686135  0.46308546
   0.27681663  0.40452201  0.57927341
   0.43484114  0.34859420  0.59527817
   0.39537062  0.34327359  0.48899166
   0.27647222  0.56196789  0.59236149
   0.45695606  0.58545193  0.61441879
   0.39920079  0.64816712  0.53794085
   0.52652499  0.41107815  0.45630284
   0.54116562  0.44883397  0.56327494
   0.42859941  0.53516923  0.42393482
   0.61063052  0.62636500  0.44986546
Direct configuration=    20
   0.33619563  0.44131636  0.56638221
   0.33596904  0.52789113  0.57407521
   0.41576073  0.58110035  0.55582675
   0.41451414  0.38958538  0.54010626
   0.49340823  0.44374674  0.51026617
   0.46908301  0.53713100  0.48310370
   0.54724277  0.58684182  0.46305761
   0.27678854  0.40454853  0.57920765
   0.43485992  0.34871734  0.59538308
   0.39537479  0.34313154  0.48913322
   0.27649099  0.56195584  0.59242690
   0.45694198  0.58550672  0.61441538
   0.39916792  0.64815353  0.53790909
   0.52632550  0.41106108  0.45606206
   0.54126861  0.44873044  0.56301352
   0.42855493  0.53525642  0.42393768
   0.61062686  0.62637960  0.44975827
Direct configuration=    21
   0.33618014  0.44132441  0.56633932
   0.33597087  0.52789377  0.57406962
   0.41575562  0.58110311  0.55582380
   0.41450476  0.38958060  0.54012207
   0.49336971  0.44371985  0.51014055
   0.46905888  0.53714061  0.48308839
   0.54725465  0.58686282  0.46301721
   0.27676133  0.40457337  0.57914597
   0.43487669  0.34883166  0.59548148
   0.39537785  0.34299812  0.48926426
   0.27650848  0.56194474  0.59248880
   0.45692791  0.58555898  0.61441277
   0.39913689  0.64814161  0.53787812
   0.52613991  0.41104500  0.45583626
   0.54136517  0.44863306  0.56276905
   0.42851233  0.53533795  0.42393903
   0.61057003  0.62636002  0.44966920
Direct configuration=    22
   0.33616149  0.44133357  0.56628685
   0.33597257  0.52789727  0.57406652
   0.41575032  0.58110801  0.55581965
   0.41449392  0.38957244  0.54013761
   0.49332520  0.44368670  0.50998959
   0.46903487  0.53715525  0.48306847
   0.54721760  0.58685639  0.46298066
   0.27672893  0.40460152  0.57907487
   0.43489681  0.34897145  0.59559879
   0.39537774  0.34283708  0.48941787
   0.27652853  0.56193438  0.59256548
   0.45691606  0.58562470  0.61440657
   0.39909582  0.64812822  0.53783609
   0.52591440  0.41102821  0.45555948
   0.54148265  0.44851277  0.56247548
   0.42845912  0.53543400  0.42393932
   0.61054265  0.62636270  0.44954946
Direct configuration=    23
   0.33614424  0.44134120  0.56623968
   0.33597439  0.52789997  0.57406835
   0.41574450  0.58111477  0.55581563
   0.41448371  0.38956257  0.54014832
   0.49328676  0.44365453  0.50985087
   0.46900936  0.53716587  0.48304940
   0.54720636  0.58686488  0.46294179
   0.27669902  0.40462578  0.57901271
   0.43491372  0.34909900  0.59570414
   0.39537367  0.34269022  0.48955255
   0.27654646  0.56192739  0.59263799
   0.45690852  0.58568833  0.61439906
   0.39905517  0.64811693  0.53779273
   0.52570814  0.41101618  0.45530497
   0.54159126  0.44840004  0.56221043
   0.42840878  0.53551897  0.42393773
   0.61049778  0.62635334  0.44944230
Direct configuration=    24
   0.33614425  0.44134074  0.56624017
   0.33597446  0.52789990  0.57407236
   0.41574424  0.58111625  0.55581519
   0.41448347  0.38956062  0.54014522
   0.49328823  0.44365364  0.50985073
   0.46901055  0.53716628  0.48304810
   0.54718884  0.58685421  0.46294497
   0.27669911  0.40462452  0.57901529
   0.43491262  0.34909914  0.59570245
   0.39537026  0.34269045  0.48954796
   0.27654637  0.56192943  0.59264034
   0.45691168  0.58569174  0.61439701
   0.39905226  0.64811770  0.53778828
   0.52570786  0.41101885  0.45530248
   0.54159217  0.44839722  0.56221215
   0.42840748  0.53551666  0.42393632
   0.61051130  0.62636249  0.44943684
Direct configuration=    25
   0.33614096  0.44134200  0.56623174
   0.33597525  0.52790039  0.57407551
   0.41574298  0.58111848  0.55581436
   0.41448122  0.38955769  0.54014531
   0.49328168  0.44364711  0.50982466
   0.46900391  0.53716718  0.48304442
   0.54719452  0.58686087  0.46293529
   0.27669368  0.40462831  0.57900536
   0.43491506  0.34912302  0.59572108
   0.39536724  0.34266290  0.48957010
   0.27655001  0.56192937  0.59265587
   0.45691239  0.58570645  0.61439411
   0.39904269  0.64811604  0.53777694
   0.52566918  0.41101842  0.45525272
   0.54161322  0.44837393  0.56216311
   0.42839710  0.53553105  0.42393512
   0.61049394  0.62635572  0.44941597
Direct configuration=    26
   0.33613758  0.44134336  0.56622292
   0.33597621  0.52790087  0.57408009
   0.41574128  0.58112123  0.55581330
   0.41447852  0.38955428  0.54014428
   0.49327511  0.44363981  0.50979673
   0.46899907  0.53716913  0.48303995
   0.54718179  0.58685665  0.46292822
   0.27668810  0.40463209  0.57899549
   0.43491720  0.34914825  0.59574005
   0.39536300  0.34263382  0.48959227
   0.27655416  0.56192975  0.59267324
   0.45691401  0.58572339  0.61439020
   0.39903163  0.64811417  0.53776351
   0.52562773  0.41101909  0.45519933
   0.54163592  0.44834806  0.56211126
   0.42838569  0.53554544  0.42393332
   0.61049080  0.62635847  0.44938963
Direct configuration=    27
   0.33608331  0.44136397  0.56608705
   0.33598947  0.52790811  0.57414470
   0.41571470  0.58115946  0.55579439
   0.41443435  0.38950485  0.54013395
   0.49316639  0.44352801  0.50936254
   0.46891006  0.53719205  0.48297245
   0.54711933  0.58687413  0.46278900
   0.27660069  0.40469244  0.57883968
   0.43494899  0.34953506  0.59603415
   0.39530120  0.34218497  0.48994278
   0.27661852  0.56193042  0.59294018
   0.45693119  0.58598169  0.61433273
   0.39886333  0.64808244  0.53756274
   0.52498852  0.41102377  0.45437759
   0.54198390  0.44795072  0.56130748
   0.42821330  0.53576974  0.42391206
   0.61034470  0.62633991  0.44901009
Direct configuration=    28
   0.33608890  0.44136286  0.56610235
   0.33598972  0.52790730  0.57413974
   0.41571811  0.58115539  0.55579433
   0.41443708  0.38951036  0.54013407
   0.49317472  0.44354005  0.50940432
   0.46892169  0.53719238  0.48297732
   0.54709152  0.58685183  0.46280546
   0.27660979  0.40468748  0.57885508
   0.43494358  0.34949636  0.59600237
   0.39530615  0.34222948  0.48990902
   0.27661532  0.56192891  0.59291904
   0.45692792  0.58596286  0.61433511
   0.39887771  0.64808335  0.53757892
   0.52505020  0.41102376  0.45445275
   0.54194805  0.44798480  0.56137829
   0.42823023  0.53574689  0.42391497
   0.61038465  0.62635908  0.44903833
Direct configuration=    29
   0.33608417  0.44136504  0.56609118
   0.33599192  0.52790790  0.57414644
   0.41571575  0.58115888  0.55579192
   0.41443220  0.38950633  0.54013267
   0.49316369  0.44352992  0.50936428
   0.46891161  0.53719357  0.48297135
   0.54709925  0.58686197  0.46278763
   0.27660221  0.40469343  0.57884133
   0.43494525  0.34953049  0.59602730
   0.39529993  0.34218939  0.48994059
   0.27662283  0.56192823  0.59294604
   0.45692881  0.58598979  0.61432841
   0.39886137  0.64807942  0.53755885
   0.52499228  0.41102465  0.45437657
   0.54197876  0.44794661  0.56130247
   0.42821453  0.53576649  0.42391350
   0.61035769  0.62634949  0.44900451
Direct configuration=    30
   0.33608188  0.44136661  0.56608599
   0.33599458  0.52790851  0.57415159
   0.41571392  0.58116097  0.55578913
   0.41442804  0.38950466  0.54013065
   0.49315618  0.44352343  0.50933865
   0.46890665  0.53719457  0.48296719
   0.54709419  0.58686300  0.46277511
   0.27659839  0.40469767  0.57883391
   0.43494437  0.34954861  0.59603877
   0.39529525  0.34216741  0.48995828
   0.27662973  0.56192688  0.59296584
   0.45692861  0.58601059  0.61432239
   0.39885035  0.64807552  0.53754444
   0.52495801  0.41102662  0.45433086
   0.54199603  0.44792135  0.56125483
   0.42820540  0.53577642  0.42391273
   0.61034574  0.62634777  0.44898118
Direct configuration=    31
   0.33607638  0.44137058  0.56607404
   0.33600085  0.52790927  0.57416507
   0.41571045  0.58116596  0.55578147
   0.41441815  0.38949993  0.54012587
   0.49313726  0.44350843  0.50927726
   0.46889518  0.53719739  0.48295676
   0.54707130  0.58685790  0.46274851
   0.27658894  0.40470758  0.57881748
   0.43494145  0.34959015  0.59606508
   0.39528296  0.34211579  0.48999887
   0.27664610  0.56192364  0.59301458
   0.45692808  0.58606155  0.61430818
   0.39882308  0.64806667  0.53750887
   0.52487810  0.41103059  0.45422198
   0.54203658  0.44786112  0.56114308
   0.42818368  0.53579945  0.42391152
   0.61033045  0.62635217  0.44892154
Direct configuration=    32
   0.33605660  0.44138409  0.56603097
   0.33602326  0.52791207  0.57421338
   0.41569729  0.58118446  0.55575446
   0.41438302  0.38948265  0.54010727
   0.49307054  0.44345388  0.50905857
   0.46885100  0.53720501  0.48291942
   0.54701977  0.58685892  0.46264604
   0.27655466  0.40474303  0.57875909
   0.43493116  0.34973848  0.59615949
   0.39523794  0.34193070  0.49014306
   0.27670425  0.56191261  0.59318994
   0.45692644  0.58624436  0.61425741
   0.39872470  0.64803566  0.53738048
   0.52459136  0.41104421  0.45383101
   0.54218156  0.44764558  0.56074286
   0.42810467  0.53588190  0.42390596
   0.61025012  0.62635188  0.44871426
Direct configuration=    33
   0.33605522  0.44138451  0.56602751
   0.33602633  0.52791235  0.57421971
   0.41569573  0.58118747  0.55575134
   0.41437972  0.38948010  0.54010225
   0.49306604  0.44344795  0.50903985
   0.46884669  0.53720391  0.48291519
   0.54702540  0.58686561  0.46263278
   0.27655115  0.40474673  0.57875614
   0.43492862  0.34974828  0.59616488
   0.39523038  0.34191549  0.49015164
   0.27671074  0.56191196  0.59321157
   0.45692652  0.58626633  0.61425138
   0.39871266  0.64803334  0.53736380
   0.52456566  0.41104526  0.45379409
   0.54219356  0.44762483  0.56070664
   0.42809534  0.53588757  0.42390344
   0.61023267  0.62634688  0.44869528
Direct configuration=    34
   0.33605527  0.44138466  0.56602725
   0.33602707  0.52791236  0.57422118
   0.41569573  0.58118824  0.55575078
   0.41437935  0.38947947  0.54010095
   0.49306600  0.44344709  0.50903801
   0.46884711  0.53720407  0.48291440
   0.54701836  0.58686156  0.46263235
   0.27655078  0.40474733  0.57875666
   0.43492786  0.34974816  0.59616428
   0.39522847  0.34191436  0.49015101
   0.27671210  0.56191192  0.59321589
   0.45692668  0.58627066  0.61425027
   0.39871038  0.64803316  0.53736029
   0.52456304  0.41104542  0.45378982
   0.54219468  0.44762212  0.56070288
   0.42809374  0.53588760  0.42390261
   0.61023613  0.62635025  0.44869033
Direct configuration=    35
   0.33605456  0.44138544  0.56602523
   0.33602977  0.52791244  0.57422657
   0.41569536  0.58119078  0.55574831
   0.41437706  0.38947727  0.54009740
   0.49306303  0.44344314  0.50902541
   0.46884445  0.53720379  0.48291151
   0.54701385  0.58686060  0.46262487
   0.27654868  0.40474999  0.57875580
   0.43492568  0.34975329  0.59616628
   0.39522245  0.34190495  0.49015479
   0.27671739  0.56191137  0.59323242
   0.45692701  0.58628748  0.61424588
   0.39870145  0.64803160  0.53734741
   0.52454670  0.41104616  0.45376553
   0.54220257  0.44760795  0.56067969
   0.42808717  0.53589069  0.42390085
   0.61022991  0.62635088  0.44867362
Direct configuration=    36
   0.33604884  0.44139062  0.56600813
   0.33604886  0.52791394  0.57426617
   0.41568845  0.58120941  0.55572791
   0.41435735  0.38946146  0.54006856
   0.49303744  0.44341061  0.50892315
   0.46882306  0.53720106  0.48288768
   0.54698270  0.58685626  0.46256573
   0.27653283  0.40477118  0.57874744
   0.43490860  0.34979432  0.59618145
   0.39517581  0.34183141  0.49018588
   0.27675949  0.56190619  0.59336047
   0.45692945  0.58641881  0.61421036
   0.39863150  0.64801699  0.53724650
   0.52441479  0.41105320  0.45357551
   0.54226660  0.44749617  0.56049653
   0.42803690  0.53591514  0.42388847
   0.61018221  0.62635614  0.44854820
Direct configuration=    37
   0.33604499  0.44139426  0.56599730
   0.33606170  0.52791468  0.57429355
   0.41568321  0.58122230  0.55571349
   0.41434339  0.38945037  0.54004863
   0.49301957  0.44338843  0.50885348
   0.46880756  0.53719885  0.48287110
   0.54696699  0.58685678  0.46252387
   0.27652269  0.40478536  0.57874275
   0.43489686  0.34982044  0.59619017
   0.39514436  0.34178355  0.49020551
   0.27678804  0.56190264  0.59344712
   0.45693111  0.58650737  0.61418629
   0.39858451  0.64800682  0.53717855
   0.52432733  0.41105774  0.45344956
   0.54230930  0.44742171  0.56037564
   0.42800402  0.53593083  0.42388107
   0.61014615  0.62635747  0.44846467
Direct configuration=    38
   0.33604796  0.44139244  0.56600565
   0.33605359  0.52791379  0.57427607
   0.41568642  0.58121373  0.55572175
   0.41435155  0.38945747  0.54006105
   0.49302987  0.44340350  0.50889958
   0.46881719  0.53720050  0.48288130
   0.54697415  0.58685455  0.46255102
   0.27653064  0.40477600  0.57874752
   0.43490419  0.34980073  0.59618109
   0.39516508  0.34181821  0.49019003
   0.27676986  0.56190471  0.59339071
   0.45692989  0.58644939  0.61420105
   0.39861564  0.64801279  0.53722305
   0.52438760  0.41105423  0.45353587
   0.54227977  0.44747224  0.56045890
   0.42802749  0.53591911  0.42388765
   0.61017223  0.62635840  0.44851929
Direct configuration=    39
   0.33604546  0.44139567  0.56599777
   0.33606442  0.52791442  0.57429768
   0.41568284  0.58122360  0.55570995
   0.41434017  0.38944902  0.54004521
   0.49301507  0.44338662  0.50884571
   0.46880467  0.53719872  0.48286865
   0.54696091  0.58685437  0.46251772
   0.27652343  0.40478735  0.57874475
   0.43489473  0.34982032  0.59618619
   0.39514018  0.34178177  0.49020428
   0.27679310  0.56190163  0.59345986
   0.45693113  0.58651997  0.61418105
   0.39857848  0.64800436  0.53716893
   0.52431979  0.41105753  0.45343768
   0.54231239  0.44741394  0.56036441
   0.42800206  0.53593083  0.42388252
   0.61014271  0.62635906  0.44845248
Direct configuration=    40
   0.33604202  0.44139936  0.56598888
   0.33607747  0.52791547  0.57432552
   0.41567660  0.58123608  0.55569357
   0.41432422  0.38943843  0.54002350
   0.49299581  0.44336482  0.50877701
   0.46878973  0.53719691  0.48285158
   0.54693712  0.58685017  0.46247554
   0.27651559  0.40480162  0.57874298
   0.43488238  0.34984212  0.59618880
   0.39510847  0.34173921  0.49021911
   0.27682301  0.56189744  0.59354763
   0.45693258  0.58660927  0.61415433
   0.39853155  0.64799284  0.53710007
   0.52423602  0.41106138  0.45331731
   0.54235174  0.44734187  0.56024812
   0.42797132  0.53594417  0.42387673
   0.61011306  0.62636472  0.44836926
Direct configuration=    41
   0.33604416  0.44139746  0.56599460
   0.33607065  0.52791490  0.57431069
   0.41567976  0.58122917  0.55570184
   0.41433222  0.38944439  0.54003469
   0.49300584  0.44337687  0.50881508
   0.46879737  0.53719753  0.48286101
   0.54695354  0.58685476  0.46249680
   0.27652070  0.40479383  0.57874532
   0.43488882  0.34982835  0.59618491
   0.39512551  0.34176451  0.49020894
   0.27680726  0.56189951  0.59350052
   0.45693171  0.58656104  0.61416787
   0.39855707  0.64799868  0.53713715
   0.52428332  0.41105895  0.45338521
   0.54232880  0.44738209  0.56031347
   0.42798877  0.53593587  0.42388046
   0.61012586  0.62635980  0.44841534
Direct configuration=    42
   0.33604295  0.44139969  0.56599082
   0.33607782  0.52791523  0.57432491
   0.41567713  0.58123530  0.55569346
   0.41432418  0.38943931  0.54002367
   0.49299599  0.44336641  0.50878183
   0.46878966  0.53719637  0.48285282
   0.54694305  0.58685358  0.46247474
   0.27651721  0.40480093  0.57874552
   0.43488246  0.34983817  0.59618473
   0.39510938  0.34174430  0.49021501
   0.27682263  0.56189734  0.59354530
   0.45693238  0.58660628  0.61415379
   0.39853347  0.64799285  0.53710228
   0.52424265  0.41106051  0.45332607
   0.54234725  0.44734650  0.56025618
   0.42797355  0.53594195  0.42387776
   0.61010841  0.62636132  0.44837298
Direct configuration=    43
   0.33603889  0.44140331  0.56598148
   0.33609131  0.52791606  0.57435470
   0.41566903  0.58124770  0.55567444
   0.41430618  0.38942888  0.53999843
   0.49297564  0.44334386  0.50871047
   0.46877435  0.53719370  0.48283477
   0.54692109  0.58685100  0.46242978
   0.27650928  0.40481591  0.57874555
   0.43486812  0.34985744  0.59618199
   0.39507359  0.34170217  0.49022543
   0.27685512  0.56189251  0.59364091
   0.45693351  0.58670338  0.61412217
   0.39848151  0.64797973  0.53702552
   0.52415355  0.41106442  0.45319981
   0.54238675  0.44727015  0.56013328
   0.42794043  0.53595410  0.42387035
   0.61007760  0.62636815  0.44828699
Direct configuration=    44
   0.33604052  0.44140285  0.56598495
   0.33608869  0.52791559  0.57434789
   0.41567148  0.58124472  0.55567848
   0.41431028  0.38943164  0.54000393
   0.49298025  0.44334993  0.50872935
   0.46877843  0.53719442  0.48283924
   0.54692409  0.58685023  0.46244044
   0.27651206  0.40481202  0.57874759
   0.43487131  0.34985023  0.59617960
   0.39508201  0.34171525  0.49022001
   0.27684764  0.56189358  0.59361837
   0.45693315  0.58667995  0.61412884
   0.39849425  0.64798267  0.53704390
   0.52417801  0.41106294  0.45323397
   0.54237489  0.44729030  0.56016641
   0.42794934  0.53594982  0.42387263
   0.61008582  0.62636725  0.44830730
Direct configuration=    45
   0.33603987  0.44140419  0.56598307
   0.33609326  0.52791571  0.57435695