 vasp.6.3.2 27Jun22 (build Dec 05 2023 10:50:29) complex                        
  
 executed on             LinuxIFC date 2023.12.13  16:15:48
 running on   20 total cores
 distrk:  each k-point on   20 cores,    1 groups
 distr:  one band on NCORE=   5 cores,    4 groups


--------------------------------------------------------------------------------------------------------


 INCAR:
   ENCUT = 600.000000
   SIGMA = 0.050000
   ALGO = Fast
   GGA = PE
   ISMEAR = 0
   ISPIN = 1
   NPAR = 4
   IVDW = 11
   LCHARG = .FALSE.
   LWAVE = .FALSE.

 POTCAR:    PAW_PBE N 08Apr2002                   
 POTCAR:    PAW_PBE C 08Apr2002                   
 POTCAR:    PAW_PBE H 15Jun2001                   
 POTCAR:    PAW_PBE N 08Apr2002                   
   SHA256 =  e053789ff3a61a86a1b75d8a110fcc91f86041011e7b0817c7c99e4e8a6349d7 N/POTCAR              
   COPYR  = (c) Copyright 08Apr2002 Georg Kresse                                                    
   COPYR  = This file is part of the software VASP. Any use, copying, and all other rights are regul
   COPYR  = If you do not have a valid VASP license, you may not use, copy or distribute this file. 
   VRHFIN =N: s2p3                                                                                  
   LEXCH  = PE                                                                                      
   EATOM  =   264.5486 eV,   19.4438 Ry                                                             
                                                                                                    
   TITEL  = PAW_PBE N 08Apr2002                                                                     
   LULTRA =        F    use ultrasoft PP ?                                                          
   IUNSCR =        1    unscreen: 0-lin 1-nonlin 2-no                                               
   RPACOR =    1.200    partial core radius                                                         
   POMASS =   14.001; ZVAL   =    5.000    mass and valenz                                          
   RCORE  =    1.500    outmost cutoff radius                                                       
   RWIGS  =    1.400; RWIGS  =    0.741    wigner-seitz radius (au A)                               
   ENMAX  =  400.000; ENMIN  =  300.000 eV                                                          
   ICORE  =        2    local potential                                                             
   LCOR   =        T    correct aug charges                                                         
   LPAW   =        T    paw PP                                                                      
   EAUG   =  627.112                                                                                
   DEXC   =    0.000                                                                                
   RMAX   =    1.529    core radius for proj-oper                                                   
   RAUG   =    1.300    factor for augmentation sphere                                              
   RDEP   =    1.514    radius for radial grids                                                     
   RDEPT  =    1.338    core radius for aug-charge                                                  
                                                                                                    
   Atomic configuration                                                                             
    4 entries                                                                                       
     n  l   j            E        occ.                                                              
     1  0  0.50      -384.7179   2.0000                                                             
     2  0  0.50       -18.5828   2.0000                                                             
     2  1  0.50        -7.0898   3.0000                                                             
     3  2  1.50        -6.8029   0.0000                                                             
   Description                                                                                      
     l       E           TYP  RCUT    TYP  RCUT                                                     
     0    -18.5828119     23  1.200                                                                 
     0    -13.5018863     23  1.200                                                                 
     1     -7.0897853     23  1.500                                                                 
     1      9.5240782     23  1.500                                                                 
     2     -6.8029130      7  1.500                                                                 
  local pseudopotential read in
  partial core-charges read in
  partial kinetic energy density read in
  atomic valenz-charges read in
  non local Contribution for L=           0  read in
    real space projection operators read in
  non local Contribution for L=           0  read in
    real space projection operators read in
  non local Contribution for L=           1  read in
    real space projection operators read in
  non local Contribution for L=           1  read in
    real space projection operators read in
    PAW grid and wavefunctions read in
 
   number of l-projection  operators is LMAX  =           4
   number of lm-projection operators is LMMAX =           8
 
 POTCAR:    PAW_PBE C 08Apr2002                   
   SHA256 =  253f7b50bb8d59471dbedb8285d89021f4a42ed1a2c5d38a03a736e69125dd95 C/POTCAR              
   COPYR  = (c) Copyright 08Apr2002 Georg Kresse                                                    
   COPYR  = This file is part of the software VASP. Any use, copying, and all other rights are regul
   COPYR  = If you do not have a valid VASP license, you may not use, copy or distribute this file. 
   VRHFIN =C: s2p2                                                                                  
   LEXCH  = PE                                                                                      
   EATOM  =   147.1560 eV,   10.8157 Ry                                                             
                                                                                                    
   TITEL  = PAW_PBE C 08Apr2002                                                                     
   LULTRA =        F    use ultrasoft PP ?                                                          
   IUNSCR =        1    unscreen: 0-lin 1-nonlin 2-no                                               
   RPACOR =    1.200    partial core radius                                                         
   POMASS =   12.011; ZVAL   =    4.000    mass and valenz                                          
   RCORE  =    1.500    outmost cutoff radius                                                       
   RWIGS  =    1.630; RWIGS  =    0.863    wigner-seitz radius (au A)                               
   ENMAX  =  400.000; ENMIN  =  300.000 eV                                                          
   ICORE  =        2    local potential                                                             
   LCOR   =        T    correct aug charges                                                         
   LPAW   =        T    paw PP                                                                      
   EAUG   =  644.873                                                                                
   DEXC   =    0.000                                                                                
   RMAX   =    1.529    core radius for proj-oper                                                   
   RAUG   =    1.300    factor for augmentation sphere                                              
   RDEP   =    1.501    radius for radial grids                                                     
   RDEPT  =    1.300    core radius for aug-charge                                                  
                                                                                                    
   Atomic configuration                                                                             
    4 entries                                                                                       
     n  l   j            E        occ.                                                              
     1  0  0.50      -273.3789   2.0000                                                             
     2  0  0.50       -13.7508   2.0000                                                             
     2  1  0.50        -5.2854   2.0000                                                             
     3  2  1.50        -5.4423   0.0000                                                             
   Description                                                                                      
     l       E           TYP  RCUT    TYP  RCUT                                                     
     0    -13.7508458     23  1.200                                                                 
     0     -8.2022199     23  1.200                                                                 
     1     -5.2854383     23  1.500                                                                 
     1     34.0145650     23  1.500                                                                 
     2     -5.4423304      7  1.500                                                                 
  local pseudopotential read in
  partial core-charges read in
  partial kinetic energy density read in
  atomic valenz-charges read in
  non local Contribution for L=           0  read in
    real space projection operators read in
  non local Contribution for L=           0  read in
    real space projection operators read in
  non local Contribution for L=           1  read in
    real space projection operators read in
  non local Contribution for L=           1  read in
    real space projection operators read in
    PAW grid and wavefunctions read in
 
   number of l-projection  operators is LMAX  =           4
   number of lm-projection operators is LMMAX =           8
 
 POTCAR:    PAW_PBE H 15Jun2001                   
   SHA256 =  030f79b5d3ab3cf0e668861823c8fb652ff669f3e15e46930bd03bfd63a607b6 H/POTCAR              
   COPYR  = (c) Copyright 15Jun2001 Georg Kresse                                                    
   COPYR  = This file is part of the software VASP. Any use, copying, and all other rights are regul
   COPYR  = If you do not have a valid VASP license, you may not use, copy or distribute this file. 
   VRHFIN =H: ultrasoft test                                                                        
   LEXCH  = PE                                                                                      
   EATOM  =    12.4884 eV,    0.9179 Ry                                                             
                                                                                                    
   TITEL  = PAW_PBE H 15Jun2001                                                                     
   LULTRA =        F    use ultrasoft PP ?                                                          
   IUNSCR =        0    unscreen: 0-lin 1-nonlin 2-no                                               
   RPACOR =    0.000    partial core radius                                                         
   POMASS =    1.000; ZVAL   =    1.000    mass and valenz                                          
   RCORE  =    1.100    outmost cutoff radius                                                       
   RWIGS  =    0.700; RWIGS  =    0.370    wigner-seitz radius (au A)                               
   ENMAX  =  250.000; ENMIN  =  200.000 eV                                                          
   RCLOC  =    0.701    cutoff for local pot                                                        
   LCOR   =        T    correct aug charges                                                         
   LPAW   =        T    paw PP                                                                      
   EAUG   =  400.000                                                                                
   RMAX   =    1.123    core radius for proj-oper                                                   
   RAUG   =    1.200    factor for augmentation sphere                                              
   RDEP   =    1.112    radius for radial grids                                                     
   RDEPT  =    0.926    core radius for aug-charge                                                  
                                                                                                    
   Atomic configuration                                                                             
    2 entries                                                                                       
     n  l   j            E        occ.                                                              
     1  0  0.50        -6.4927   1.0000                                                             
     2  1  0.50        -3.4015   0.0000                                                             
   Description                                                                                      
     l       E           TYP  RCUT    TYP  RCUT                                                     
     0     -6.4927494     23  1.100                                                                 
     0      6.8029130     23  1.100                                                                 
     1     -4.0817478     23  1.100                                                                 
  local pseudopotential read in
  atomic valenz-charges read in
  non local Contribution for L=           0  read in
    real space projection operators read in
  non local Contribution for L=           0  read in
    real space projection operators read in
  non local Contribution for L=           1  read in
    real space projection operators read in
    PAW grid and wavefunctions read in
 
   number of l-projection  operators is LMAX  =           3
   number of lm-projection operators is LMMAX =           5
 
 -----------------------------------------------------------------------------
|                                                                             |
|               ----> ADVICE to this user running VASP <----                  |
|                                                                             |
|     You have a (more or less) 'large supercell' and for larger cells it     |
|     might be more efficient to use real-space projection operators.         |
|     Therefore, try LREAL= Auto in the INCAR file.                           |
|     Mind: For very accurate calculation, you might also keep the            |
|     reciprocal projection scheme (i.e. LREAL=.FALSE.).                      |
|                                                                             |
 -----------------------------------------------------------------------------

  PAW_PBE N 08Apr2002                   :
 energy of atom  1       EATOM= -264.5486
 kinetic energy error for atom=    0.0103 (will be added to EATOM!!)
  PAW_PBE C 08Apr2002                   :
 energy of atom  2       EATOM= -147.1560
 kinetic energy error for atom=    0.0057 (will be added to EATOM!!)
  PAW_PBE H 15Jun2001                   :
 energy of atom  3       EATOM=  -12.4884
 kinetic energy error for atom=    0.0004 (will be added to EATOM!!)
 
 
 POSCAR:  N  C  H
  positions in cartesian coordinates
  No initial velocities read in
 exchange correlation table for  LEXCH =        8
   RHO(1)=    0.500       N(1)  =     2000
   RHO(2)=  100.500       N(2)  =     4000
 


--------------------------------------------------------------------------------------------------------


 ion  position               nearest neighbor table
   1  0.687  0.468  0.531-  28 1.02  27 1.03   8 1.44
   2  0.503  0.487  0.456-  10 1.10  11 1.10   3 1.56   4 1.59
   3  0.455  0.532  0.481-  13 1.11  12 1.23   5 1.56   2 1.56
   4  0.554  0.531  0.466-  14 1.09  15 1.16   6 1.53   2 1.59
   5  0.408  0.479  0.496-  16 1.13  17 1.15   7 1.54   3 1.56
   6  0.594  0.478  0.504-  19 1.11  18 1.12   8 1.53   4 1.53
   7  0.361  0.522  0.524-  21 1.07  20 1.15   5 1.54   9 1.54
   8  0.646  0.516  0.508-  23 1.15  22 1.16   1 1.44   6 1.53
   9  0.316  0.466  0.524-  26 1.11  24 1.11  25 1.11   7 1.54
  10  0.506  0.431  0.487-   2 1.10
  11  0.495  0.469  0.394-   2 1.10
  12  0.444  0.583  0.433-   3 1.23
  13  0.463  0.563  0.537-   3 1.11
  14  0.568  0.556  0.411-   4 1.09
  15  0.545  0.578  0.513-   4 1.16
  16  0.415  0.434  0.543-   5 1.13
  17  0.400  0.445  0.439-   5 1.15
  18  0.581  0.461  0.564-   6 1.12
  19  0.598  0.422  0.473-   6 1.11
  20  0.356  0.574  0.482-   7 1.15
  21  0.369  0.546  0.581-   7 1.07
  22  0.642  0.570  0.549-   8 1.16
  23  0.650  0.537  0.444-   8 1.15
  24  0.306  0.445  0.464-   9 1.11
  25  0.282  0.494  0.546-   9 1.11
  26  0.322  0.416  0.565-   9 1.11
  27  0.719  0.502  0.539-   1 1.03
  28  0.692  0.421  0.495-   1 1.02
 
  LATTYP: Found a simple orthorhombic cell.
 ALAT       =    16.8815000000
 B/A-ratio  =     1.0212421882
 C/A-ratio  =     1.5879868495
  
  Lattice vectors:
  
 A1 = (   0.0000000000,   0.0000000000, -16.8815000000)
 A2 = (   0.0000000000,  17.2401000000,   0.0000000000)
 A3 = (  26.8076000000,   0.0000000000,   0.0000000000)


Analysis of symmetry for initial positions (statically):
=====================================================================
 Subroutine PRICEL returns:
 Original cell was already a primitive cell.
 

 Routine SETGRP: Setting up the symmetry group for a 
 simple orthorhombic supercell.


 Subroutine GETGRP returns: Found  1 space group operations
 (whereof  1 operations were pure point group operations)
 out of a pool of  8 trial point group operations.


The static configuration has the point symmetry C_1 .


Analysis of symmetry for dynamics (positions and initial velocities):
=====================================================================
 Subroutine PRICEL returns:
 Original cell was already a primitive cell.
 

 Routine SETGRP: Setting up the symmetry group for a 
 simple orthorhombic supercell.


 Subroutine GETGRP returns: Found  1 space group operations
 (whereof  1 operations were pure point group operations)
 out of a pool of  8 trial point group operations.


The dynamic configuration has the point symmetry C_1 .


 Subroutine INISYM returns: Found  1 space group operations
 (whereof  1 operations are pure point group operations),
 and found     1 'primitive' translations


----------------------------------------------------------------------------------------

                                     Primitive cell                                     

  volume of cell :    7802.0503

  direct lattice vectors                    reciprocal lattice vectors
    26.807600000  0.000000000  0.000000000     0.037302854  0.000000000  0.000000000
     0.000000000 17.240100000  0.000000000     0.000000000  0.058004304  0.000000000
     0.000000000  0.000000000 16.881500000     0.000000000  0.000000000  0.059236442

  length of vectors
    26.807600000 17.240100000 16.881500000     0.037302854  0.058004304  0.059236442

  position of ions in fractional coordinates (direct lattice)
     0.687356741  0.468372059  0.530596057
     0.502700401  0.486696876  0.456058926
     0.454725702  0.531688630  0.481272129
     0.554450518  0.530980108  0.466008073
     0.408221959  0.479101573  0.495622263
     0.594047835  0.478436723  0.503651318
     0.361182955  0.522087057  0.523556213
     0.645627256  0.516381261  0.508219477
     0.316269540  0.466020745  0.524186159
     0.506124014  0.431059431  0.487164957
     0.495157919  0.469108996  0.394291049
     0.443983240  0.583110867  0.433309758
     0.463325176  0.562571460  0.537066351
     0.568197783  0.556244551  0.411066251
     0.545282869  0.577657155  0.513252055
     0.414707014  0.433772221  0.542661435
     0.399767854  0.445346476  0.438699931
     0.580974476  0.461380879  0.564208699
     0.598104467  0.422200675  0.472635542
     0.356318942  0.573909330  0.481608462
     0.368903198  0.545953358  0.580752382
     0.641568679  0.569840152  0.548984480
     0.650493659  0.537302894  0.443894923
     0.305597786  0.445042724  0.464198039
     0.281550120  0.494245888  0.546197868
     0.322314303  0.416290161  0.565020485
     0.718926573  0.501532872  0.539132578
     0.692244080  0.421346982  0.494732199

  ion indices of the primitive-cell ions
   primitive index   ion index
                 1           1
                 2           2
                 3           3
                 4           4
                 5           5
                 6           6
                 7           7
                 8           8
                 9           9
                10          10
                11          11
                12          12
                13          13
                14          14
                15          15
                16          16
                17          17
                18          18
                19          19
                20          20
                21          21
                22          22
                23          23
                24          24
                25          25
                26          26
                27          27
                28          28

----------------------------------------------------------------------------------------

 
 
 KPOINTS: KPOINTS created by Atomic Simulation Env

Automatic generation of k-mesh.
 Grid dimensions read from file:
 generate k-points for:    1    1    1

 Generating k-lattice:

  Cartesian coordinates                     Fractional coordinates (reciprocal lattice)
     0.037302854  0.000000000  0.000000000     1.000000000  0.000000000  0.000000000
     0.000000000  0.058004304  0.000000000     0.000000000  1.000000000  0.000000000
     0.000000000  0.000000000  0.059236442     0.000000000  0.000000000  1.000000000

  Length of vectors
     0.037302854  0.058004304  0.059236442

  Shift w.r.t. Gamma in fractional coordinates (k-lattice)
     0.000000000  0.000000000  0.000000000

 
 Subroutine IBZKPT returns following result:
 ===========================================
 
 Found      1 irreducible k-points:
 
 Following reciprocal coordinates:
            Coordinates               Weight
  0.000000  0.000000  0.000000      1.000000
 
 Following cartesian coordinates:
            Coordinates               Weight
  0.000000  0.000000  0.000000      1.000000
 


--------------------------------------------------------------------------------------------------------




 Dimension of arrays:
   k-points           NKPTS =      1   k-points in BZ     NKDIM =      1   number of bands    NBANDS=     44
   number of dos      NEDOS =    301   number of ions     NIONS =     28
   non local maximal  LDIM  =      4   non local SUM 2l+1 LMDIM =      8
   total plane-waves  NPLWV = ******
   max r-space proj   IRMAX =      1   max aug-charges    IRDMAX=   3179
   dimension x,y,z NGX =   162 NGY =  108 NGZ =  108
   dimension x,y,z NGXF=   324 NGYF=  216 NGZF=  216
   support grid    NGXF=   324 NGYF=  216 NGZF=  216
   ions per type =               1   8  19
   NGX,Y,Z   is equivalent  to a cutoff of  10.05, 10.41, 10.64 a.u.
   NGXF,Y,Z  is equivalent  to a cutoff of  20.09, 20.83, 21.27 a.u.

 SYSTEM =  unknown system                          
 POSCAR =   N  C  H                                

 Startparameter for this run:
   NWRITE =      2    write-flag & timer
   PREC   = normal    normal or accurate (medium, high low for compatibility)
   ISTART =      0    job   : 0-new  1-cont  2-samecut
   ICHARG =      2    charge: 1-file 2-atom 10-const
   ISPIN  =      1    spin polarized calculation?
   LNONCOLLINEAR =      F non collinear calculations
   LSORBIT =      F    spin-orbit coupling
   INIWAV =      1    electr: 0-lowe 1-rand  2-diag
   LASPH  =      F    aspherical Exc in radial PAW
 Electronic Relaxation 1
   ENCUT  =  600.0 eV  44.10 Ry    6.64 a.u.  53.54 34.43 33.72*2*pi/ulx,y,z
   ENINI  =  600.0     initial cutoff
   ENAUG  =  644.9 eV  augmentation charge cutoff
   NELM   =     60;   NELMIN=  2; NELMDL=  0     # of ELM steps 
   EDIFF  = 0.1E-03   stopping-criterion for ELM
   LREAL  =      F    real-space projection
   NLSPLINE    = F    spline interpolate recip. space projectors
   LCOMPAT=      F    compatible to vasp.4.4
   GGA_COMPAT  = T    GGA compatible to vasp.4.4-vasp.4.6
   LMAXPAW     = -100 max onsite density
   LMAXMIX     =    2 max onsite mixed and CHGCAR
   VOSKOWN=      0    Vosko Wilk Nusair interpolation
   ROPT   =    0.00000   0.00000   0.00000
 Ionic relaxation
   EDIFFG = 0.1E-02   stopping-criterion for IOM
   NSW    =      0    number of steps for IOM
   NBLOCK =      1;   KBLOCK =      1    inner block; outer block 
   IBRION =     -1    ionic relax: 0-MD 1-quasi-New 2-CG
   NFREE  =      0    steps in history (QN), initial steepest desc. (CG)
   ISIF   =      2    stress and relaxation
   IWAVPR =     10    prediction:  0-non 1-charg 2-wave 3-comb
   ISYM   =      2    0-nonsym 1-usesym 2-fastsym
   LCORR  =      T    Harris-Foulkes like correction to forces

   POTIM  = 0.5000    time-step for ionic-motion
   TEIN   =    0.0    initial temperature
   TEBEG  =    0.0;   TEEND  =   0.0 temperature during run
   SMASS  =  -3.00    Nose mass-parameter (am)
   estimated Nose-frequenzy (Omega)   =  0.10E-29 period in steps = 0.13E+47 mass=  -0.164E-25a.u.
   SCALEE = 1.0000    scale energy and forces
   NPACO  =    256;   APACO  = 10.0  distance and # of slots for P.C.
   PSTRESS=    0.0 pullay stress

  Mass of Ions in am
   POMASS =  14.00 12.01  1.00
  Ionic Valenz
   ZVAL   =   5.00  4.00  1.00
  Atomic Wigner-Seitz radii
   RWIGS  =  -1.00 -1.00 -1.00
  virtual crystal weights 
   VCA    =   1.00  1.00  1.00
   NELECT =      56.0000    total number of electrons
   NUPDOWN=      -1.0000    fix difference up-down

 DOS related values:
   EMIN   =  10.00;   EMAX   =-10.00  energy-range for DOS
   EFERMI =   0.00
   ISMEAR =     0;   SIGMA  =   0.05  broadening in eV -4-tet -1-fermi 0-gaus

 Electronic relaxation 2 (details)
   IALGO  =     68    algorithm
   LDIAG  =      T    sub-space diagonalisation (order eigenvalues)
   LSUBROT=      F    optimize rotation matrix (better conditioning)
   TURBO    =      0    0=normal 1=particle mesh
   IRESTART =      0    0=no restart 2=restart with 2 vectors
   NREBOOT  =      0    no. of reboots
   NMIN     =      0    reboot dimension
   EREF     =   0.00    reference energy to select bands
   IMIX   =      4    mixing-type and parameters
     AMIX     =   0.40;   BMIX     =  1.00
     AMIX_MAG =   1.60;   BMIX_MAG =  1.00
     AMIN     =   0.10
     WC   =   100.;   INIMIX=   1;  MIXPRE=   1;  MAXMIX= -45

 Intra band minimization:
   WEIMIN = 0.0000     energy-eigenvalue tresh-hold
   EBREAK =  0.57E-06  absolut break condition
   DEPER  =   0.30     relativ break condition  

   TIME   =   0.40     timestep for ELM

  volume/ion in A,a.u.               =     278.64      1880.39
  Fermi-wavevector in a.u.,A,eV,Ry     =   0.315792  0.596761  1.356836  0.099725
  Thomas-Fermi vector in A             =   1.198270
 
 Write flags
   LWAVE        =      F    write WAVECAR
   LDOWNSAMPLE  =      F    k-point downsampling of WAVECAR
   LCHARG       =      F    write CHGCAR
   LVTOT        =      F    write LOCPOT, total local potential
   LVHAR        =      F    write LOCPOT, Hartree potential only
   LELF         =      F    write electronic localiz. function (ELF)
   LORBIT       =      0    0 simple, 1 ext, 2 COOP (PROOUT), +10 PAW based schemes


 Dipole corrections
   LMONO  =      F    monopole corrections only (constant potential shift)
   LDIPOL =      F    correct potential (dipole corrections)
   IDIPOL =      0    1-x, 2-y, 3-z, 4-all directions 
   EPSILON=  1.0000000 bulk dielectric constant

 Exchange correlation treatment:
   GGA     =    PE    GGA type
   LEXCH   =     8    internal setting for exchange type
   LIBXC   =     F    Libxc                    
   VOSKOWN =     0    Vosko Wilk Nusair interpolation
   LHFCALC =     F    Hartree Fock is set to
   LHFONE  =     F    Hartree Fock one center treatment
   AEXX    =    0.0000 exact exchange contribution

 Linear response parameters
   LEPSILON=     F    determine dielectric tensor
   LRPA    =     F    only Hartree local field effects (RPA)
   LNABLA  =     F    use nabla operator in PAW spheres
   LVEL    =     F    velocity operator in full k-point grid
   CSHIFT  =0.1000    complex shift for real part using Kramers Kronig
   OMEGAMAX=  -1.0    maximum frequency
   DEG_THRESHOLD= 0.2000000E-02 threshold for treating states as degnerate
   RTIME   =   -0.100 relaxation time in fs
  (WPLASMAI=    0.000 imaginary part of plasma frequency in eV, 0.658/RTIME)
   DFIELD  = 0.0000000 0.0000000 0.0000000 field for delta impulse in time
 
  Optional k-point grid parameters
   LKPOINTS_OPT  =     F    use optional k-point grid
   KPOINTS_OPT_MODE=     1    mode for optional k-point grid
 
 Orbital magnetization related:
   ORBITALMAG=     F  switch on orbital magnetization
   LCHIMAG   =     F  perturbation theory with respect to B field
   DQ        =  0.001000  dq finite difference perturbation B field
   LLRAUG    =     F  two centre corrections for induced B field



--------------------------------------------------------------------------------------------------------


 Static calculation
 charge density and potential will be updated during run
 non-spin polarized calculation
 RMM-DIIS sequential band-by-band and
  variant of blocked Davidson during initial phase
 perform sub-space diagonalisation
    before iterative eigenvector-optimisation
 modified Broyden-mixing scheme, WC =      100.0
 initial mixing is a Kerker type mixing with AMIX =  0.4000 and BMIX =      1.0000
 Hartree-type preconditioning will be used
 using additional bands           16
 reciprocal scheme for non local part
 use partial core corrections
 calculate Harris-corrections to forces 
   (improved forces if not selfconsistent)
 use gradient corrections 
 use of overlap-Matrix (Vanderbilt PP)
 Gauss-broadening in eV      SIGMA  =   0.05


--------------------------------------------------------------------------------------------------------


  energy-cutoff  :      600.00
  volume of cell :     7802.05
      direct lattice vectors                 reciprocal lattice vectors
    26.807600000  0.000000000  0.000000000     0.037302854  0.000000000  0.000000000
     0.000000000 17.240100000  0.000000000     0.000000000  0.058004304  0.000000000
     0.000000000  0.000000000 16.881500000     0.000000000  0.000000000  0.059236442

  length of vectors
    26.807600000 17.240100000 16.881500000     0.037302854  0.058004304  0.059236442


 
 k-points in units of 2pi/SCALE and weight: KPOINTS created by Atomic Simulation Env
   0.00000000  0.00000000  0.00000000       1.000
 
 k-points in reciprocal lattice and weights: KPOINTS created by Atomic Simulation Env
   0.00000000  0.00000000  0.00000000       1.000
 
 position of ions in fractional coordinates (direct lattice) 
   0.68735674  0.46837206  0.53059606
   0.50270040  0.48669688  0.45605893
   0.45472570  0.53168863  0.48127213
   0.55445052  0.53098011  0.46600807
   0.40822196  0.47910157  0.49562226
   0.59404783  0.47843672  0.50365132
   0.36118296  0.52208706  0.52355621
   0.64562726  0.51638126  0.50821948
   0.31626954  0.46602074  0.52418616
   0.50612401  0.43105943  0.48716496
   0.49515792  0.46910900  0.39429105
   0.44398324  0.58311087  0.43330976
   0.46332518  0.56257146  0.53706635
   0.56819778  0.55624455  0.41106625
   0.54528287  0.57765716  0.51325205
   0.41470701  0.43377222  0.54266143
   0.39976785  0.44534648  0.43869993
   0.58097448  0.46138088  0.56420870
   0.59810447  0.42220067  0.47263554
   0.35631894  0.57390933  0.48160846
   0.36890320  0.54595336  0.58075238
   0.64156868  0.56984015  0.54898448
   0.65049366  0.53730289  0.44389492
   0.30559779  0.44504272  0.46419804
   0.28155012  0.49424589  0.54619787
   0.32231430  0.41629016  0.56502048
   0.71892657  0.50153287  0.53913258
   0.69224408  0.42134698  0.49473220
 
 position of ions in cartesian coordinates  (Angst):
  18.42638457  8.07478114  8.95725733
  13.47619128  8.39070282  7.69895876
  12.19010473  9.16636515  8.12459544
  14.86348771  9.15415016  7.86691528
  10.94345098  8.25975903  8.36684723
  15.92499673  8.24829695  8.50238973
   9.68244819  9.00083307  8.83841421
  17.30771723  8.90246458  8.57950710
   8.47842733  8.03424424  8.84904864
  13.56797011  7.43150770  8.22407523
  13.27399543  8.08748600  6.65622434
  11.90212510 10.05288966  7.31491868
  12.42063600  9.69878822  9.06648561
  15.23201888  9.58971168  6.93941491
  14.61772505  9.95886712  8.66446456
  11.11729975  7.47827646  9.16093901
  10.71681673  7.67781778  7.40591288
  15.57453135  7.95425249  9.52468915
  16.03374530  7.27878185  7.97879690
   9.55205568  9.89425424  8.13027325
   9.88940938  9.41229048  9.80397133
  17.19891652  9.82410121  9.26768150
  17.43817380  9.26315563  7.49361215
   8.19234322  7.67258106  7.83635919
   7.54768301  8.52084853  9.22063931
   8.64047292  7.17688400  9.53839331
  19.27269600  8.64647687  9.10136662
  18.55740240  7.26406410  8.35182162
 


--------------------------------------------------------------------------------------------------------


 k-point   1 :   0.0000 0.0000 0.0000  plane waves:  260485

 maximum and minimum number of plane-waves per node :     52105    52090

 maximum number of plane-waves:    260485
 maximum index in each direction: 
   IXMAX=   53   IYMAX=   34   IZMAX=   33
   IXMIN=  -53   IYMIN=  -34   IZMIN=  -33


 parallel 3D FFT for wavefunctions:
    minimum data exchange during FFTs selected (reduces bandwidth)
 parallel 3D FFT for charge:
    minimum data exchange during FFTs selected (reduces bandwidth)


 total amount of memory used by VASP MPI-rank0   177422. kBytes
=======================================================================

   base      :      30000. kBytes
   nonl-proj :      33349. kBytes
   fftplans  :      38311. kBytes
   grid      :      66567. kBytes
   one-center:         18. kBytes
   wavefun   :       9177. kBytes
 
     INWAV:  cpu time      0.0001: real time      0.0002
 Broyden mixing: mesh for mixing (old mesh)
   NGX =107   NGY = 69   NGZ = 67
  (NGX  =324   NGY  =216   NGZ  =216)
  gives a total of 494661 points

 initial charge density was supplied:
 charge density of overlapping atoms calculated
 number of electron      56.0000000 magnetization 
 keeping initial charge density in first step


--------------------------------------------------------------------------------------------------------


 Maximum index for augmentation-charges          247 (set IRDMAX)


--------------------------------------------------------------------------------------------------------


 First call to EWALD:  gamma=   0.089
 Maximum number of real-space cells 2x 3x 3
 Maximum number of reciprocal cells 4x 2x 2

    FEWALD:  cpu time      0.3334: real time      0.3336


--------------------------------------- Iteration      1(   1)  ---------------------------------------


    POTLOK:  cpu time      2.0515: real time      2.0612
    SETDIJ:  cpu time      0.2016: real time      0.2018
     EDDAV:  cpu time     21.0240: real time     21.1407
       DOS:  cpu time      1.1354: real time      1.1393
    --------------------------------------------
      LOOP:  cpu time     24.4126: real time     24.5431

 eigenvalue-minimisations  :   104
 total energy-change (2. order) : 0.4915924E+03  (-0.1172339E+04)
 number of electron      56.0000000 magnetization 
 augmentation part       56.0000000 magnetization 

 Free energy of the ion-electron system (eV)
  ---------------------------------------------------
  alpha Z        PSCENC =         1.66613503
  Ewald energy   TEWEN  =      3886.25689738
  -Hartree energ DENC   =     -4963.72171742
  -exchange      EXHF   =         0.00000000
  -V(xc)+E(xc)   XCENC  =       168.90320413
  PAW double counting   =      1113.65562394    -1119.57053240
  entropy T*S    EENTRO =        -0.02153666
  eigenvalues    EBANDS =      -274.58808925
  atomic energy  EATOM  =      1679.01238979
  Solvation  Ediel_sol  =         0.00000000
  ---------------------------------------------------
  free energy    TOTEN  =       491.59237454 eV

  energy without entropy =      491.61391120  energy(sigma->0) =      491.60314287


--------------------------------------------------------------------------------------------------------




--------------------------------------- Iteration      1(   2)  ---------------------------------------


     EDDAV:  cpu time     25.8698: real time     26.0119
       DOS:  cpu time      1.0871: real time      1.0911
    --------------------------------------------
      LOOP:  cpu time     26.9569: real time     27.1030

 eigenvalue-minimisations  :   144
 total energy-change (2. order) :-0.3561922E+03  (-0.3313489E+03)
 number of electron      56.0000000 magnetization 
 augmentation part       56.0000000 magnetization 

 Free energy of the ion-electron system (eV)
  ---------------------------------------------------
  alpha Z        PSCENC =         1.66613503
  Ewald energy   TEWEN  =      3886.25689738
  -Hartree energ DENC   =     -4963.72171742
  -exchange      EXHF   =         0.00000000
  -V(xc)+E(xc)   XCENC  =       168.90320413
  PAW double counting   =      1113.65562394    -1119.57053240
  entropy T*S    EENTRO =        -0.02720883
  eigenvalues    EBANDS =      -630.77458477
  atomic energy  EATOM  =      1679.01238979
  Solvation  Ediel_sol  =         0.00000000
  ---------------------------------------------------
  free energy    TOTEN  =       135.40020685 eV

  energy without entropy =      135.42741569  energy(sigma->0) =      135.41381127


--------------------------------------------------------------------------------------------------------




--------------------------------------- Iteration      1(   3)  ---------------------------------------


     EDDAV:  cpu time     24.3974: real time     24.5272
       DOS:  cpu time      0.1936: real time      0.1938
    --------------------------------------------
      LOOP:  cpu time     24.5910: real time     24.7210

 eigenvalue-minimisations  :   128
 total energy-change (2. order) :-0.2596979E+03  (-0.2567673E+03)
 number of electron      56.0000000 magnetization 
 augmentation part       56.0000000 magnetization 

 Free energy of the ion-electron system (eV)
  ---------------------------------------------------
  alpha Z        PSCENC =         1.66613503
  Ewald energy   TEWEN  =      3886.25689738
  -Hartree energ DENC   =     -4963.72171742
  -exchange      EXHF   =         0.00000000
  -V(xc)+E(xc)   XCENC  =       168.90320413
  PAW double counting   =      1113.65562394    -1119.57053240
  entropy T*S    EENTRO =        -0.00000000
  eigenvalues    EBANDS =      -890.49965840
  atomic energy  EATOM  =      1679.01238979
  Solvation  Ediel_sol  =         0.00000000
  ---------------------------------------------------
  free energy    TOTEN  =      -124.29765794 eV

  energy without entropy =     -124.29765794  energy(sigma->0) =     -124.29765794


--------------------------------------------------------------------------------------------------------




--------------------------------------- Iteration      1(   4)  ---------------------------------------


     EDDAV:  cpu time     22.1416: real time     22.2312
       DOS:  cpu time      0.3623: real time      0.3658
    --------------------------------------------
      LOOP:  cpu time     22.5039: real time     22.5970

 eigenvalue-minimisations  :   112
 total energy-change (2. order) :-0.4085918E+02  (-0.4076923E+02)
 number of electron      56.0000000 magnetization 
 augmentation part       56.0000000 magnetization 

 Free energy of the ion-electron system (eV)
  ---------------------------------------------------
  alpha Z        PSCENC =         1.66613503
  Ewald energy   TEWEN  =      3886.25689738
  -Hartree energ DENC   =     -4963.72171742
  -exchange      EXHF   =         0.00000000
  -V(xc)+E(xc)   XCENC  =       168.90320413
  PAW double counting   =      1113.65562394    -1119.57053240
  entropy T*S    EENTRO =        -0.00000000
  eigenvalues    EBANDS =      -931.35883406
  atomic energy  EATOM  =      1679.01238979
  Solvation  Ediel_sol  =         0.00000000
  ---------------------------------------------------
  free energy    TOTEN  =      -165.15683361 eV

  energy without entropy =     -165.15683361  energy(sigma->0) =     -165.15683361


--------------------------------------------------------------------------------------------------------




--------------------------------------- Iteration      1(   5)  ---------------------------------------


     EDDAV:  cpu time     25.1179: real time     25.2419
       DOS:  cpu time      0.3230: real time      0.3231
    CHARGE:  cpu time      0.6855: real time      0.6894
    MIXING:  cpu time      0.3406: real time      0.3408
    --------------------------------------------
      LOOP:  cpu time     26.4669: real time     26.5952

 eigenvalue-minimisations  :   136
 total energy-change (2. order) :-0.1248327E+01  (-0.1247013E+01)
 number of electron      55.9999992 magnetization 
 augmentation part        1.6417842 magnetization 

 Broyden mixing:
  rms(total) = 0.19441E+01    rms(broyden)= 0.19439E+01
  rms(prec ) = 0.20671E+01
  weight for this iteration     100.00

 Free energy of the ion-electron system (eV)
  ---------------------------------------------------
  alpha Z        PSCENC =         1.66613503
  Ewald energy   TEWEN  =      3886.25689738
  -Hartree energ DENC   =     -4963.72171742
  -exchange      EXHF   =         0.00000000
  -V(xc)+E(xc)   XCENC  =       168.90320413
  PAW double counting   =      1113.65562394    -1119.57053240
  entropy T*S    EENTRO =        -0.00000000
  eigenvalues    EBANDS =      -932.60716108
  atomic energy  EATOM  =      1679.01238979
  Solvation  Ediel_sol  =         0.00000000
  ---------------------------------------------------
  free energy    TOTEN  =      -166.40516062 eV

  energy without entropy =     -166.40516062  energy(sigma->0) =     -166.40516062


--------------------------------------------------------------------------------------------------------




--------------------------------------- Iteration      1(   6)  ---------------------------------------


    POTLOK:  cpu time      2.0286: real time      2.0598
    SETDIJ:  cpu time      0.2299: real time      0.2299
    EDDIAG:  cpu time      4.5649: real time      4.5827
  RMM-DIIS:  cpu time     10.3758: real time     10.4562
    ORTHCH:  cpu time      0.4372: real time      0.4408
       DOS:  cpu time      0.4860: real time      0.4864
    CHARGE:  cpu time      0.8122: real time      0.8161
    MIXING:  cpu time      0.4715: real time      0.4754
    --------------------------------------------
      LOOP:  cpu time     19.4060: real time     19.5474

 eigenvalue-minimisations  :   120
 total energy-change (2. order) : 0.1275900E+02  (-0.1807475E+01)
 number of electron      55.9999992 magnetization 
 augmentation part        1.5101604 magnetization 

 Broyden mixing:
  rms(total) = 0.10116E+01    rms(broyden)= 0.10116E+01
  rms(prec ) = 0.10673E+01
  weight for this iteration     100.00

 eigenvalues of (default mixing * dielectric matrix)
  average eigenvalue GAMMA=   1.6557
  1.6557

 Free energy of the ion-electron system (eV)
  ---------------------------------------------------
  alpha Z        PSCENC =         1.66613503
  Ewald energy   TEWEN  =      3886.25689738
  -Hartree energ DENC   =     -5086.78335772
  -exchange      EXHF   =         0.00000000
  -V(xc)+E(xc)   XCENC  =       174.82165600
  PAW double counting   =      1985.72702601    -1992.72965730
  entropy T*S    EENTRO =        -0.00000000
  eigenvalues    EBANDS =      -801.61724603
  atomic energy  EATOM  =      1679.01238979
  Solvation  Ediel_sol  =         0.00000000
  ---------------------------------------------------
  free energy    TOTEN  =      -153.64615685 eV

  energy without entropy =     -153.64615685  energy(sigma->0) =     -153.64615685


--------------------------------------------------------------------------------------------------------




--------------------------------------- Iteration      1(   7)  ---------------------------------------


    POTLOK:  cpu time      2.0138: real time      2.0249
    SETDIJ:  cpu time      0.2273: real time      0.2274
    EDDIAG:  cpu time      4.7855: real time      4.8063
  RMM-DIIS:  cpu time     10.6810: real time     10.7263
    ORTHCH:  cpu time      0.2888: real time      0.2926
       DOS:  cpu time      0.4087: real time      0.4090
    CHARGE:  cpu time      0.7620: real time      0.7660
    MIXING:  cpu time      0.5048: real time      0.5048
    --------------------------------------------
      LOOP:  cpu time     19.6718: real time     19.7574

 eigenvalue-minimisations  :   120
 total energy-change (2. order) : 0.2581327E+01  (-0.1679528E+01)
 number of electron      55.9999992 magnetization 
 augmentation part        1.3940284 magnetization 

 Broyden mixing:
  rms(total) = 0.49552E+00    rms(broyden)= 0.49545E+00
  rms(prec ) = 0.51249E+00
  weight for this iteration     100.00

 eigenvalues of (default mixing * dielectric matrix)
  average eigenvalue GAMMA=   2.0745
  2.0745  2.0745

 Free energy of the ion-electron system (eV)
  ---------------------------------------------------
  alpha Z        PSCENC =         1.66613503
  Ewald energy   TEWEN  =      3886.25689738
  -Hartree energ DENC   =     -5192.60869625
  -exchange      EXHF   =         0.00000000
  -V(xc)+E(xc)   XCENC  =       180.49582481
  PAW double counting   =      3106.95918874    -3114.56731173
  entropy T*S    EENTRO =        -0.00000000
  eigenvalues    EBANDS =      -698.27925718
  atomic energy  EATOM  =      1679.01238979
  Solvation  Ediel_sol  =         0.00000000
  ---------------------------------------------------
  free energy    TOTEN  =      -151.06482941 eV

  energy without entropy =     -151.06482941  energy(sigma->0) =     -151.06482941


--------------------------------------------------------------------------------------------------------




--------------------------------------- Iteration      1(   8)  ---------------------------------------


    POTLOK:  cpu time      2.0101: real time      2.0350
    SETDIJ:  cpu time      0.2108: real time      0.2110
    EDDIAG:  cpu time      4.7569: real time      4.7743
  RMM-DIIS:  cpu time     10.4293: real time     10.4813
    ORTHCH:  cpu time      0.2973: real time      0.2975
       DOS:  cpu time      0.1580: real time      0.1580
    CHARGE:  cpu time      0.6774: real time      0.6814
    MIXING:  cpu time      0.5603: real time      0.5605
    --------------------------------------------
      LOOP:  cpu time     19.1000: real time     19.1990

 eigenvalue-minimisations  :   120
 total energy-change (2. order) : 0.3442160E+00  (-0.3189059E+00)
 number of electron      55.9999992 magnetization 
 augmentation part        1.4259002 magnetization 

 Broyden mixing:
  rms(total) = 0.18985E+00    rms(broyden)= 0.18984E+00
  rms(prec ) = 0.21058E+00
  weight for this iteration     100.00

 eigenvalues of (default mixing * dielectric matrix)
  average eigenvalue GAMMA=   1.7345
  2.5845  1.3094  1.3094

 Free energy of the ion-electron system (eV)
  ---------------------------------------------------
  alpha Z        PSCENC =         1.66613503
  Ewald energy   TEWEN  =      3886.25689738
  -Hartree energ DENC   =     -5191.64975972
  -exchange      EXHF   =         0.00000000
  -V(xc)+E(xc)   XCENC  =       181.00141344
  PAW double counting   =      3507.02413069    -3514.14290804
  entropy T*S    EENTRO =        -0.00000000
  eigenvalues    EBANDS =      -699.88891197
  atomic energy  EATOM  =      1679.01238979
  Solvation  Ediel_sol  =         0.00000000
  ---------------------------------------------------
  free energy    TOTEN  =      -150.72061339 eV

  energy without entropy =     -150.72061339  energy(sigma->0) =     -150.72061339


--------------------------------------------------------------------------------------------------------




--------------------------------------- Iteration      1(   9)  ---------------------------------------


    POTLOK:  cpu time      2.0303: real time      2.0413
    SETDIJ:  cpu time      0.2410: real time      0.2446
    EDDIAG:  cpu time      5.0202: real time      5.0398
  RMM-DIIS:  cpu time     10.5717: real time     10.6539
    ORTHCH:  cpu time      0.5890: real time      0.5928
       DOS:  cpu time      0.4686: real time      0.4687
    CHARGE:  cpu time      0.8461: real time      0.8509
    MIXING:  cpu time      0.5855: real time      0.5891
    --------------------------------------------
      LOOP:  cpu time     20.3524: real time     20.4810

 eigenvalue-minimisations  :   120
 total energy-change (2. order) : 0.2918316E+00  (-0.5495932E-01)
 number of electron      55.9999992 magnetization 
 augmentation part        1.4115544 magnetization 

 Broyden mixing:
  rms(total) = 0.61975E-01    rms(broyden)= 0.61969E-01
  rms(prec ) = 0.75037E-01
  weight for this iteration     100.00

 eigenvalues of (default mixing * dielectric matrix)
  average eigenvalue GAMMA=   1.6124
  2.3561  1.0116  1.5410  1.5410

 Free energy of the ion-electron system (eV)
  ---------------------------------------------------
  alpha Z        PSCENC =         1.66613503
  Ewald energy   TEWEN  =      3886.25689738
  -Hartree energ DENC   =     -5221.65010338
  -exchange      EXHF   =         0.00000000
  -V(xc)+E(xc)   XCENC  =       182.42034365
  PAW double counting   =      3738.90965098    -3746.21671006
  entropy T*S    EENTRO =        -0.00000000
  eigenvalues    EBANDS =      -670.82738518
  atomic energy  EATOM  =      1679.01238979
  Solvation  Ediel_sol  =         0.00000000
  ---------------------------------------------------
  free energy    TOTEN  =      -150.42878179 eV

  energy without entropy =     -150.42878179  energy(sigma->0) =     -150.42878179


--------------------------------------------------------------------------------------------------------




--------------------------------------- Iteration      1(  10)  ---------------------------------------


    POTLOK:  cpu time      2.0540: real time      2.0634
    SETDIJ:  cpu time      0.2022: real time      0.2096
    EDDIAG:  cpu time      4.8692: real time      4.9420
  RMM-DIIS:  cpu time     10.9112: real time     10.9624
    ORTHCH:  cpu time      0.3367: real time      0.3368
       DOS:  cpu time      0.2785: real time      0.2788
    CHARGE:  cpu time      0.9855: real time      0.9901
    MIXING:  cpu time      0.5738: real time      0.5789
    --------------------------------------------
      LOOP:  cpu time     20.2111: real time     20.3620

 eigenvalue-minimisations  :   121
 total energy-change (2. order) :-0.2708245E-01  (-0.5692218E-01)
 number of electron      55.9999992 magnetization 
 augmentation part        1.3928041 magnetization 

 Broyden mixing:
  rms(total) = 0.82804E-01    rms(broyden)= 0.82799E-01
  rms(prec ) = 0.90066E-01
  weight for this iteration     100.00

 eigenvalues of (default mixing * dielectric matrix)
  average eigenvalue GAMMA=   1.6277
  2.5676  2.0768  1.0329  1.2307  1.2307

 Free energy of the ion-electron system (eV)
  ---------------------------------------------------
  alpha Z        PSCENC =         1.66613503
  Ewald energy   TEWEN  =      3886.25689738
  -Hartree energ DENC   =     -5233.33002028
  -exchange      EXHF   =         0.00000000
  -V(xc)+E(xc)   XCENC  =       182.64893179
  PAW double counting   =      3697.02572121    -3704.39576484
  entropy T*S    EENTRO =        -0.00000000
  eigenvalues    EBANDS =      -659.34015433
  atomic energy  EATOM  =      1679.01238979
  Solvation  Ediel_sol  =         0.00000000
  ---------------------------------------------------
  free energy    TOTEN  =      -150.45586425 eV

  energy without entropy =     -150.45586425  energy(sigma->0) =     -150.45586425


--------------------------------------------------------------------------------------------------------




--------------------------------------- Iteration      1(  11)  ---------------------------------------


    POTLOK:  cpu time      2.0326: real time      2.0418
    SETDIJ:  cpu time      0.1872: real time      0.1872
    EDDIAG:  cpu time      5.0167: real time      5.0366
  RMM-DIIS:  cpu time     10.3134: real time     10.3635
    ORTHCH:  cpu time      0.7042: real time      0.7046
       DOS:  cpu time      0.4288: real time      0.4324
    CHARGE:  cpu time      0.8248: real time      0.8299
    MIXING:  cpu time      0.5608: real time      0.5610
    --------------------------------------------
      LOOP:  cpu time     20.0687: real time     20.1571

 eigenvalue-minimisations  :   120
 total energy-change (2. order) : 0.1800756E-01  (-0.1677450E-01)
 number of electron      55.9999992 magnetization 
 augmentation part        1.3997591 magnetization 

 Broyden mixing:
  rms(total) = 0.32372E-01    rms(broyden)= 0.32369E-01
  rms(prec ) = 0.39703E-01
  weight for this iteration     100.00

 eigenvalues of (default mixing * dielectric matrix)
  average eigenvalue GAMMA=   1.7386
  2.7652  2.7652  1.6065  1.1846  1.1846  0.9253

 Free energy of the ion-electron system (eV)
  ---------------------------------------------------
  alpha Z        PSCENC =         1.66613503
  Ewald energy   TEWEN  =      3886.25689738
  -Hartree energ DENC   =     -5231.85671161
  -exchange      EXHF   =         0.00000000
  -V(xc)+E(xc)   XCENC  =       182.52116206
  PAW double counting   =      3715.96712483    -3723.21847580
  entropy T*S    EENTRO =        -0.00000000
  eigenvalues    EBANDS =      -660.78637836
  atomic energy  EATOM  =      1679.01238979
  Solvation  Ediel_sol  =         0.00000000
  ---------------------------------------------------
  free energy    TOTEN  =      -150.43785668 eV

  energy without entropy =     -150.43785668  energy(sigma->0) =     -150.43785668


--------------------------------------------------------------------------------------------------------




--------------------------------------- Iteration      1(  12)  ---------------------------------------


    POTLOK:  cpu time      2.1307: real time      2.1403
    SETDIJ:  cpu time      0.2085: real time      0.2086
    EDDIAG:  cpu time      4.5716: real time      4.5892
  RMM-DIIS:  cpu time     10.4367: real time     10.5308
    ORTHCH:  cpu time      0.3540: real time      0.3541
       DOS:  cpu time      0.3958: real time      0.3960
    CHARGE:  cpu time      0.6272: real time      0.6319
    MIXING:  cpu time      0.6643: real time      0.6680
    --------------------------------------------
      LOOP:  cpu time     19.3888: real time     19.5190

 eigenvalue-minimisations  :   121
 total energy-change (2. order) : 0.3892043E-02  (-0.3233255E-02)
 number of electron      55.9999992 magnetization 
 augmentation part        1.3973083 magnetization 

 Broyden mixing:
  rms(total) = 0.99848E-02    rms(broyden)= 0.99832E-02
  rms(prec ) = 0.15175E-01
  weight for this iteration     100.00

 eigenvalues of (default mixing * dielectric matrix)
  average eigenvalue GAMMA=   1.7634
  3.6258  2.5747  1.7517  1.1514  1.1514  1.1580  0.9308

 Free energy of the ion-electron system (eV)
  ---------------------------------------------------
  alpha Z        PSCENC =         1.66613503
  Ewald energy   TEWEN  =      3886.25689738
  -Hartree energ DENC   =     -5242.78186461
  -exchange      EXHF   =         0.00000000
  -V(xc)+E(xc)   XCENC  =       182.69121542
  PAW double counting   =      3698.16761272    -3705.44714667
  entropy T*S    EENTRO =        -0.00000000
  eigenvalues    EBANDS =      -649.99920370
  atomic energy  EATOM  =      1679.01238979
  Solvation  Ediel_sol  =         0.00000000
  ---------------------------------------------------
  free energy    TOTEN  =      -150.43396464 eV

  energy without entropy =     -150.43396464  energy(sigma->0) =     -150.43396464


--------------------------------------------------------------------------------------------------------




--------------------------------------- Iteration      1(  13)  ---------------------------------------


    POTLOK:  cpu time      2.0793: real time      2.0885
    SETDIJ:  cpu time      0.2375: real time      0.2375
    EDDIAG:  cpu time      5.1622: real time      5.1814
  RMM-DIIS:  cpu time     11.2599: real time     11.3123
    ORTHCH:  cpu time      0.3216: real time      0.3253
       DOS:  cpu time      0.2400: real time      0.2401
    CHARGE:  cpu time      0.6322: real time      0.6364
    MIXING:  cpu time      0.7201: real time      0.7204
    --------------------------------------------
      LOOP:  cpu time     20.6527: real time     20.7420

 eigenvalue-minimisations  :   124
 total energy-change (2. order) :-0.5563149E-02  (-0.2447605E-02)
 number of electron      55.9999992 magnetization 
 augmentation part        1.3938644 magnetization 

 Broyden mixing:
  rms(total) = 0.15818E-01    rms(broyden)= 0.15816E-01
  rms(prec ) = 0.18317E-01
  weight for this iteration     100.00

 eigenvalues of (default mixing * dielectric matrix)
  average eigenvalue GAMMA=   1.9244
  4.5564  2.5434  2.5434  1.5563  1.1242  1.1242  1.0294  0.9178

 Free energy of the ion-electron system (eV)
  ---------------------------------------------------
  alpha Z        PSCENC =         1.66613503
  Ewald energy   TEWEN  =      3886.25689738
  -Hartree energ DENC   =     -5247.95782098
  -exchange      EXHF   =         0.00000000
  -V(xc)+E(xc)   XCENC  =       182.80796130
  PAW double counting   =      3704.49281802    -3711.78550436
  entropy T*S    EENTRO =        -0.00000000
  eigenvalues    EBANDS =      -644.93240397
  atomic energy  EATOM  =      1679.01238979
  Solvation  Ediel_sol  =         0.00000000
  ---------------------------------------------------
  free energy    TOTEN  =      -150.43952779 eV

  energy without entropy =     -150.43952779  energy(sigma->0) =     -150.43952779


--------------------------------------------------------------------------------------------------------




--------------------------------------- Iteration      1(  14)  ---------------------------------------


    POTLOK:  cpu time      2.0145: real time      2.0446
    SETDIJ:  cpu time      0.2389: real time      0.2424
    EDDIAG:  cpu time      4.5262: real time      4.5400
  RMM-DIIS:  cpu time     11.0679: real time     11.1173
    ORTHCH:  cpu time      0.5951: real time      0.5989
       DOS:  cpu time      0.0718: real time      0.0718
    CHARGE:  cpu time      0.7274: real time      0.7314
    MIXING:  cpu time      0.6833: real time      0.6835
    --------------------------------------------
      LOOP:  cpu time     19.9249: real time     20.0300

 eigenvalue-minimisations  :   120
 total energy-change (2. order) :-0.1319057E-01  (-0.6685456E-03)
 number of electron      55.9999992 magnetization 
 augmentation part        1.3943182 magnetization 

 Broyden mixing:
  rms(total) = 0.48947E-02    rms(broyden)= 0.48945E-02
  rms(prec ) = 0.63667E-02
  weight for this iteration     100.00

 eigenvalues of (default mixing * dielectric matrix)
  average eigenvalue GAMMA=   1.9433
  5.5354  2.6634  2.3793  1.7414  1.1210  1.1210  1.1142  0.9384  0.8760

 Free energy of the ion-electron system (eV)
  ---------------------------------------------------
  alpha Z        PSCENC =         1.66613503
  Ewald energy   TEWEN  =      3886.25689738
  -Hartree energ DENC   =     -5249.96483373
  -exchange      EXHF   =         0.00000000
  -V(xc)+E(xc)   XCENC  =       182.78168107
  PAW double counting   =      3699.86109649    -3707.14435207
  entropy T*S    EENTRO =        -0.00000000
  eigenvalues    EBANDS =      -642.92173231
  atomic energy  EATOM  =      1679.01238979
  Solvation  Ediel_sol  =         0.00000000
  ---------------------------------------------------
  free energy    TOTEN  =      -150.45271836 eV

  energy without entropy =     -150.45271836  energy(sigma->0) =     -150.45271836


--------------------------------------------------------------------------------------------------------




--------------------------------------- Iteration      1(  15)  ---------------------------------------


    POTLOK:  cpu time      2.0658: real time      2.0755
    SETDIJ:  cpu time      0.2439: real time      0.2474
    EDDIAG:  cpu time      4.3134: real time      4.3292
  RMM-DIIS:  cpu time     10.5570: real time     10.6379
    ORTHCH:  cpu time      0.3185: real time      0.3220
       DOS:  cpu time      0.1859: real time      0.1860
    CHARGE:  cpu time      0.8675: real time      0.8717
    MIXING:  cpu time      0.7345: real time      0.7382
    --------------------------------------------
      LOOP:  cpu time     19.2865: real time     19.4080

 eigenvalue-minimisations  :   120
 total energy-change (2. order) :-0.4183425E-02  (-0.2721045E-03)
 number of electron      55.9999992 magnetization 
 augmentation part        1.3945892 magnetization 

 Broyden mixing:
  rms(total) = 0.38870E-02    rms(broyden)= 0.38864E-02
  rms(prec ) = 0.50171E-02
  weight for this iteration     100.00

 eigenvalues of (default mixing * dielectric matrix)
  average eigenvalue GAMMA=   1.9407
  5.8684  2.8103  2.1283  2.1283  1.1131  1.1131  1.3254  0.9027  1.0086  1.0086

 Free energy of the ion-electron system (eV)
  ---------------------------------------------------
  alpha Z        PSCENC =         1.66613503
  Ewald energy   TEWEN  =      3886.25689738
  -Hartree energ DENC   =     -5250.02117080
  -exchange      EXHF   =         0.00000000
  -V(xc)+E(xc)   XCENC  =       182.76221117
  PAW double counting   =      3698.54662312    -3705.82427577
  entropy T*S    EENTRO =        -0.00000000
  eigenvalues    EBANDS =      -642.85571169
  atomic energy  EATOM  =      1679.01238979
  Solvation  Ediel_sol  =         0.00000000
  ---------------------------------------------------
  free energy    TOTEN  =      -150.45690178 eV

  energy without entropy =     -150.45690178  energy(sigma->0) =     -150.45690178


--------------------------------------------------------------------------------------------------------




--------------------------------------- Iteration      1(  16)  ---------------------------------------


    POTLOK:  cpu time      2.1183: real time      2.1318
    SETDIJ:  cpu time      0.1901: real time      0.1902
    EDDIAG:  cpu time      4.7256: real time      4.7440
  RMM-DIIS:  cpu time     10.2842: real time     10.3325
    ORTHCH:  cpu time      0.5007: real time      0.5011
       DOS:  cpu time      0.3489: real time      0.3524
    CHARGE:  cpu time      0.7971: real time      0.8011
    MIXING:  cpu time      0.7734: real time      0.7738
    --------------------------------------------
      LOOP:  cpu time     19.7383: real time     19.8270

 eigenvalue-minimisations  :   119
 total energy-change (2. order) :-0.7590561E-02  (-0.1506923E-03)
 number of electron      55.9999992 magnetization 
 augmentation part        1.3944273 magnetization 

 Broyden mixing:
  rms(total) = 0.23534E-02    rms(broyden)= 0.23533E-02
  rms(prec ) = 0.29742E-02
  weight for this iteration     100.00

 eigenvalues of (default mixing * dielectric matrix)
  average eigenvalue GAMMA=   2.0703
  6.6020  3.6921  2.4715  1.8996  1.8996  1.1167  1.1167  1.2041  0.9049  0.9332
  0.9332

 Free energy of the ion-electron system (eV)
  ---------------------------------------------------
  alpha Z        PSCENC =         1.66613503
  Ewald energy   TEWEN  =      3886.25689738
  -Hartree energ DENC   =     -5250.26633317
  -exchange      EXHF   =         0.00000000
  -V(xc)+E(xc)   XCENC  =       182.74222791
  PAW double counting   =      3696.29609984    -3703.57205025
  entropy T*S    EENTRO =        -0.00000000
  eigenvalues    EBANDS =      -642.59985886
  atomic energy  EATOM  =      1679.01238979
  Solvation  Ediel_sol  =         0.00000000
  ---------------------------------------------------
  free energy    TOTEN  =      -150.46449234 eV

  energy without entropy =     -150.46449234  energy(sigma->0) =     -150.46449234


--------------------------------------------------------------------------------------------------------




--------------------------------------- Iteration      1(  17)  ---------------------------------------


    POTLOK:  cpu time      2.0459: real time      2.0556
    SETDIJ:  cpu time      0.2040: real time      0.2074
    EDDIAG:  cpu time      4.6439: real time      4.6596
  RMM-DIIS:  cpu time      9.7576: real time      9.8029
    ORTHCH:  cpu time      0.3409: real time      0.3412
       DOS:  cpu time      0.2160: real time      0.2194
    CHARGE:  cpu time      0.8558: real time      0.8563
    MIXING:  cpu time      0.7887: real time      0.7926
    --------------------------------------------
      LOOP:  cpu time     18.8526: real time     18.9350

 eigenvalue-minimisations  :   112
 total energy-change (2. order) :-0.2792163E-02  (-0.7750537E-04)
 number of electron      55.9999992 magnetization 
 augmentation part        1.3941547 magnetization 

 Broyden mixing:
  rms(total) = 0.18345E-02    rms(broyden)= 0.18344E-02
  rms(prec ) = 0.21575E-02
  weight for this iteration     100.00

 eigenvalues of (default mixing * dielectric matrix)
  average eigenvalue GAMMA=   2.0808
  6.5587  3.7823  2.4247  2.3281  2.3281  1.1070  1.1070  1.2708  1.1228  1.1228
  0.9562  0.8615

 Free energy of the ion-electron system (eV)
  ---------------------------------------------------
  alpha Z        PSCENC =         1.66613503
  Ewald energy   TEWEN  =      3886.25689738
  -Hartree energ DENC   =     -5250.81181400
  -exchange      EXHF   =         0.00000000
  -V(xc)+E(xc)   XCENC  =       182.75003691
  PAW double counting   =      3698.01406850    -3705.29230499
  entropy T*S    EENTRO =        -0.00000000
  eigenvalues    EBANDS =      -642.06269312
  atomic energy  EATOM  =      1679.01238979
  Solvation  Ediel_sol  =         0.00000000
  ---------------------------------------------------
  free energy    TOTEN  =      -150.46728450 eV

  energy without entropy =     -150.46728450  energy(sigma->0) =     -150.46728450


--------------------------------------------------------------------------------------------------------




--------------------------------------- Iteration      1(  18)  ---------------------------------------


    POTLOK:  cpu time      2.0095: real time      2.0522
    SETDIJ:  cpu time      0.2197: real time      0.2198
    EDDIAG:  cpu time      4.6817: real time      4.6996
  RMM-DIIS:  cpu time     10.0382: real time     10.1169
    ORTHCH:  cpu time      0.4402: real time      0.4439
       DOS:  cpu time      0.2695: real time      0.2697
    CHARGE:  cpu time      0.8223: real time      0.8262
    MIXING:  cpu time      0.7978: real time      0.8017
    --------------------------------------------
      LOOP:  cpu time     19.2789: real time     19.4300

 eigenvalue-minimisations  :   106
 total energy-change (2. order) :-0.1713223E-02  (-0.4577234E-04)
 number of electron      55.9999992 magnetization 
 augmentation part        1.3941827 magnetization 

 Broyden mixing:
  rms(total) = 0.19788E-02    rms(broyden)= 0.19788E-02
  rms(prec ) = 0.21563E-02
  weight for this iteration     100.00

 eigenvalues of (default mixing * dielectric matrix)
  average eigenvalue GAMMA=   2.1407
  7.5268  4.7524  2.4917  2.4917  1.9582  1.1109  1.1109  1.4469  1.3231  0.9581
  0.9581  0.8504  0.8504

 Free energy of the ion-electron system (eV)
  ---------------------------------------------------
  alpha Z        PSCENC =         1.66613503
  Ewald energy   TEWEN  =      3886.25689738
  -Hartree energ DENC   =     -5250.86161687
  -exchange      EXHF   =         0.00000000
  -V(xc)+E(xc)   XCENC  =       182.74477568
  PAW double counting   =      3697.07802457    -3704.35795309
  entropy T*S    EENTRO =        -0.00000000
  eigenvalues    EBANDS =      -642.00765022
  atomic energy  EATOM  =      1679.01238979
  Solvation  Ediel_sol  =         0.00000000
  ---------------------------------------------------
  free energy    TOTEN  =      -150.46899773 eV

  energy without entropy =     -150.46899773  energy(sigma->0) =     -150.46899773


--------------------------------------------------------------------------------------------------------




--------------------------------------- Iteration      1(  19)  ---------------------------------------


    POTLOK:  cpu time      2.0585: real time      2.0674
    SETDIJ:  cpu time      0.2163: real time      0.2165
    EDDIAG:  cpu time      4.5559: real time      4.5742
  RMM-DIIS:  cpu time      8.5867: real time      8.6274
    ORTHCH:  cpu time      0.3013: real time      0.3016
       DOS:  cpu time      0.2586: real time      0.2620
    CHARGE:  cpu time      0.7608: real time      0.7616
    MIXING:  cpu time      0.9188: real time      0.9226
    --------------------------------------------
      LOOP:  cpu time     17.6569: real time     17.7333

 eigenvalue-minimisations  :    95
 total energy-change (2. order) :-0.7205876E-03  (-0.1359054E-04)
 number of electron      55.9999992 magnetization 
 augmentation part        1.3942014 magnetization 

 Broyden mixing:
  rms(total) = 0.14913E-02    rms(broyden)= 0.14912E-02
  rms(prec ) = 0.16025E-02
  weight for this iteration     100.00

 eigenvalues of (default mixing * dielectric matrix)
  average eigenvalue GAMMA=   2.1038
  7.5032  5.0800  2.4272  2.4272  1.8966  1.8966  1.2564  1.1303  1.1303  0.9228
  0.9228  0.8573  1.0015  1.0015

 Free energy of the ion-electron system (eV)
  ---------------------------------------------------
  alpha Z        PSCENC =         1.66613503
  Ewald energy   TEWEN  =      3886.25689738
  -Hartree energ DENC   =     -5250.82712271
  -exchange      EXHF   =         0.00000000
  -V(xc)+E(xc)   XCENC  =       182.74138423
  PAW double counting   =      3697.36229272    -3704.64062199
  entropy T*S    EENTRO =        -0.00000000
  eigenvalues    EBANDS =      -642.04107276
  atomic energy  EATOM  =      1679.01238979
  Solvation  Ediel_sol  =         0.00000000
  ---------------------------------------------------
  free energy    TOTEN  =      -150.46971832 eV

  energy without entropy =     -150.46971832  energy(sigma->0) =     -150.46971832


--------------------------------------------------------------------------------------------------------




--------------------------------------- Iteration      1(  20)  ---------------------------------------


    POTLOK:  cpu time      2.0221: real time      2.0457
    SETDIJ:  cpu time      0.1881: real time      0.1881
    EDDIAG:  cpu time      4.5463: real time      4.5642
  RMM-DIIS:  cpu time      8.3955: real time      8.4389
    ORTHCH:  cpu time      0.5554: real time      0.5592
       DOS:  cpu time      0.2346: real time      0.2347
    CHARGE:  cpu time      0.6902: real time      0.6942
    MIXING:  cpu time      0.9119: real time      0.9158
    --------------------------------------------
      LOOP:  cpu time     17.5441: real time     17.6408

 eigenvalue-minimisations  :    92
 total energy-change (2. order) :-0.2392846E-03  (-0.5659107E-05)
 number of electron      55.9999992 magnetization 
 augmentation part        1.3942240 magnetization 

 Broyden mixing:
  rms(total) = 0.10129E-02    rms(broyden)= 0.10128E-02
  rms(prec ) = 0.10948E-02
  weight for this iteration     100.00

 eigenvalues of (default mixing * dielectric matrix)
  average eigenvalue GAMMA=   2.2008
  8.2745  5.5981  2.8442  2.5095  2.5095  1.5356  1.3261  1.3261  1.1014  1.1014
  1.1011  1.1011  0.9774  0.8528  0.8528

 Free energy of the ion-electron system (eV)
  ---------------------------------------------------
  alpha Z        PSCENC =         1.66613503
  Ewald energy   TEWEN  =      3886.25689738
  -Hartree energ DENC   =     -5250.82140066
  -exchange      EXHF   =         0.00000000
  -V(xc)+E(xc)   XCENC  =       182.74139649
  PAW double counting   =      3697.59386653    -3704.87163013
  entropy T*S    EENTRO =        -0.00000000
  eigenvalues    EBANDS =      -642.04761202
  atomic energy  EATOM  =      1679.01238979
  Solvation  Ediel_sol  =         0.00000000
  ---------------------------------------------------
  free energy    TOTEN  =      -150.46995760 eV

  energy without entropy =     -150.46995760  energy(sigma->0) =     -150.46995760


--------------------------------------------------------------------------------------------------------




--------------------------------------- Iteration      1(  21)  ---------------------------------------


    POTLOK:  cpu time      2.1172: real time      2.1272
    SETDIJ:  cpu time      0.2367: real time      0.2368
    EDDIAG:  cpu time      4.8020: real time      4.8217
  RMM-DIIS:  cpu time      8.5122: real time      8.5559
    ORTHCH:  cpu time      0.3380: real time      0.3420
       DOS:  cpu time      0.3305: real time      0.3306
    CHARGE:  cpu time      0.8655: real time      0.8700
    MIXING:  cpu time      0.8828: real time      0.9139
    --------------------------------------------
      LOOP:  cpu time     18.0849: real time     18.1980

 eigenvalue-minimisations  :    93
 total energy-change (2. order) :-0.3369038E-03  (-0.6881513E-05)
 number of electron      55.9999992 magnetization 
 augmentation part        1.3940849 magnetization 

 Broyden mixing:
  rms(total) = 0.51462E-03    rms(broyden)= 0.51455E-03
  rms(prec ) = 0.55455E-03
  weight for this iteration     100.00

 eigenvalues of (default mixing * dielectric matrix)
  average eigenvalue GAMMA=   2.1488
  8.4759  5.5974  2.9627  2.3607  2.1106  1.6495  1.6495  1.1806  1.1806  1.0958
  1.0958  1.3752  0.9430  0.9430  0.8799  0.8799

 Free energy of the ion-electron system (eV)
  ---------------------------------------------------
  alpha Z        PSCENC =         1.66613503
  Ewald energy   TEWEN  =      3886.25689738
  -Hartree energ DENC   =     -5250.94000739
  -exchange      EXHF   =         0.00000000
  -V(xc)+E(xc)   XCENC  =       182.74477269
  PAW double counting   =      3697.63735182    -3704.91596858
  entropy T*S    EENTRO =        -0.00000000
  eigenvalues    EBANDS =      -641.93186524
  atomic energy  EATOM  =      1679.01238979
  Solvation  Ediel_sol  =         0.00000000
  ---------------------------------------------------
  free energy    TOTEN  =      -150.47029450 eV

  energy without entropy =     -150.47029450  energy(sigma->0) =     -150.47029450


--------------------------------------------------------------------------------------------------------




--------------------------------------- Iteration      1(  22)  ---------------------------------------


    POTLOK:  cpu time      2.0723: real time      2.1291
    SETDIJ:  cpu time      0.2238: real time      0.2239
    EDDIAG:  cpu time      4.4474: real time      4.4659
  RMM-DIIS:  cpu time      8.4175: real time      8.4573
    ORTHCH:  cpu time      0.4396: real time      0.4433
       DOS:  cpu time      0.2794: real time      0.2796
    --------------------------------------------
      LOOP:  cpu time     15.8801: real time     15.9990

 eigenvalue-minimisations  :    85
 total energy-change (2. order) :-0.4677631E-04  (-0.1081433E-05)
 number of electron      55.9999992 magnetization 
 augmentation part        1.3940849 magnetization 

 Free energy of the ion-electron system (eV)
  ---------------------------------------------------
  alpha Z        PSCENC =         1.66613503
  Ewald energy   TEWEN  =      3886.25689738
  -Hartree energ DENC   =     -5250.91529282
  -exchange      EXHF   =         0.00000000
  -V(xc)+E(xc)   XCENC  =       182.74357723
  PAW double counting   =      3697.57971490    -3704.85803797
  entropy T*S    EENTRO =        -0.00000000
  eigenvalues    EBANDS =      -641.95572482
  atomic energy  EATOM  =      1679.01238979
  Solvation  Ediel_sol  =         0.00000000
  ---------------------------------------------------
  free energy    TOTEN  =      -150.47034128 eV

  energy without entropy =     -150.47034128  energy(sigma->0) =     -150.47034128


--------------------------------------------------------------------------------------------------------




 average (electrostatic) potential at core
  the test charge radii are     0.7089  0.6991  0.5201
  (the norm of the test charge is              1.0000)
       1 -72.6940       2 -58.2324       3 -58.4444       4 -58.3658       5 -58.2811
       6 -58.2268       7 -58.2704       8 -58.9273       9 -58.1534      10 -41.4133
      11 -41.2856      12 -40.6618      13 -41.3308      14 -41.6055      15 -41.0373
      16 -41.2019      17 -41.0163      18 -41.1413      19 -41.4032      20 -41.0294
      21 -41.7065      22 -41.2052      23 -40.8366      24 -41.3797      25 -41.2758
      26 -41.4132      27 -43.0330      28 -43.1611
 
 
 
 E-fermi :  -4.6961     XC(G=0):  -0.4493     alpha+bet : -0.1811

 Fermi energy:        -4.6960553178

 k-point     1 :       0.0000    0.0000    0.0000
  band No.  band energies     occupation 
      1     -21.7228      2.00000
      2     -19.6341      2.00000
      3     -19.1053      2.00000
      4     -17.9899      2.00000
      5     -16.6190      2.00000
      6     -15.3378      2.00000
      7     -14.1836      2.00000
      8     -13.8408      2.00000
      9     -13.6714      2.00000
     10     -12.1039      2.00000
     11     -11.3679      2.00000
     12     -11.0499      2.00000
     13     -10.7513      2.00000
     14     -10.3745      2.00000
     15     -10.1255      2.00000
     16      -9.6184      2.00000
     17      -9.4169      2.00000
     18      -8.8999      2.00000
     19      -8.7367      2.00000
     20      -8.4687      2.00000
     21      -8.0869      2.00000
     22      -7.9913      2.00000
     23      -7.6425      2.00000
     24      -7.5919      2.00000
     25      -7.3584      2.00000
     26      -7.2166      2.00000
     27      -7.1204      2.00000
     28      -4.9516      2.00000
     29      -0.5412      0.00000
     30      -0.3820      0.00000
     31      -0.1802      0.00000
     32      -0.0776      0.00000
     33      -0.0444      0.00000
     34       0.1584      0.00000
     35       0.2081      0.00000
     36       0.2779      0.00000
     37       0.3519      0.00000
     38       0.4274      0.00000
     39       0.4690      0.00000
     40       0.5516      0.00000
     41       0.6242      0.00000
     42       0.6820      0.00000
     43       0.9119      0.00000
     44       1.0974      0.00000


--------------------------------------------------------------------------------------------------------


 soft charge-density along one line, spin component           1
         0         1         2         3         4         5         6         7         8         9
 total charge-density along one line
 
 pseudopotential strength for first ion, spin component:           1
 13.826  16.600  -0.001   0.004  -0.001  -0.005   0.014  -0.003
 16.600  19.933  -0.001   0.005  -0.001  -0.006   0.017  -0.004
 -0.001  -0.001  -7.183  -0.031   0.005  -9.929  -0.048   0.007
  0.004   0.005  -0.031  -7.125  -0.016  -0.048  -9.838  -0.024
 -0.001  -0.001   0.005  -0.016  -7.186   0.007  -0.024  -9.933
 -0.005  -0.006  -9.929  -0.048   0.007 -13.068  -0.074   0.011
  0.014   0.017  -0.048  -9.838  -0.024  -0.074 -12.927  -0.038
 -0.003  -0.004   0.007  -0.024  -9.933   0.011  -0.038 -13.075
 total augmentation occupancy for first ion, spin component:           1
  7.271  -3.347   0.341  -0.798   0.164  -0.116   0.229  -0.019
 -3.347   1.647  -0.315   0.703  -0.129   0.082  -0.145  -0.001
  0.341  -0.315   2.613   0.102  -0.010  -0.553  -0.100   0.028
 -0.798   0.703   0.102   2.426   0.056  -0.100  -0.346  -0.061
  0.164  -0.129  -0.010   0.056   2.585   0.028  -0.061  -0.566
 -0.116   0.082  -0.553  -0.100   0.028   0.124   0.029  -0.012
  0.229  -0.145  -0.100  -0.346  -0.061   0.029   0.061   0.019
 -0.019  -0.001   0.028  -0.061  -0.566  -0.012   0.019   0.130


------------------------ aborting loop because EDIFF is reached ----------------------------------------


    CHARGE:  cpu time      0.8157: real time      0.8198
    FORLOC:  cpu time      0.3229: real time      0.3231
    FORNL :  cpu time      1.7893: real time      1.7976
    STRESS:  cpu time      6.4072: real time      6.4391
    FORCOR:  cpu time      2.0944: real time      2.1040
    FORHAR:  cpu time      0.7485: real time      0.7490
    MIXING:  cpu time      0.9710: real time      0.9749
    OFIELD:  cpu time      0.0001: real time      0.0001

 ---------------------------------------------------------------------------------------------

         DFTD3 V3.0 Rev 1        
 IVDW         = 11
 DF pbe       
 parameters
 VDW_S6       =    1.0000
 VDW_S8       =    0.7220
 VDW_SR       =    1.2170
 rs18     =    1.0000
 alpha6   =   14.0000
 alpha8   =   16.0000
 k1-k3    =   16.0000    1.3333   -4.0000
 VDW_RADIUS   =   50.2022 A
 VDW_CNRADIUS =   21.1671 A
 Edisp (eV)   -0.30584

 E6    (eV) :    -0.1235
 E8    (eV) :    -0.1824
 % E8        : 59.63
    FORVDW:  cpu time      0.0194: real time      0.0194

  FORCE on cell =-STRESS in cart. coord.  units (eV):
  Direction    XX          YY          ZZ          XY          YZ          ZX
  --------------------------------------------------------------------------------------
  Alpha Z     1.66614     1.66614     1.66614
  Ewald    2674.63425   741.91752   469.70445    -3.25079   -11.28478     9.72964
  Hartree  2860.68814  1277.48804  1112.71797     2.72778   -33.44901    -3.88668
  E(xc)    -198.60725  -199.16304  -199.51707    -0.02998     0.09669     0.08285
  Local   -6033.01937 -2504.09981 -2073.02692    -1.94621    55.12083    -0.33847
  n-local   -93.71270   -96.83845  -101.33293    -0.39695     0.30388     0.68402
  augment     0.60775     0.51341     0.94270     0.06799    -0.27504    -0.15431
  Kinetic   781.96993   771.82288   782.87313     2.20772    -9.79447    -6.13632
  Fock        0.00000     0.00000     0.00000     0.00000     0.00000     0.00000
  vdW        -0.13420     0.06186     0.01856     0.00106     0.00030     0.01430
  -------------------------------------------------------------------------------------
  Total      -5.90731    -6.63145    -5.95397    -0.61939     0.71841    -0.00496
  in kB      -1.21309    -1.36179    -1.22267    -0.12719     0.14753    -0.00102
  external pressure =       -1.27 kB  Pullay stress =        0.00 kB


 VOLUME and BASIS-vectors are now :
 -----------------------------------------------------------------------------
  energy-cutoff  :      600.00
  volume of cell :     7802.05
      direct lattice vectors                 reciprocal lattice vectors
    26.807600000  0.000000000  0.000000000     0.037302854  0.000000000  0.000000000
     0.000000000 17.240100000  0.000000000     0.000000000  0.058004304  0.000000000
     0.000000000  0.000000000 16.881500000     0.000000000  0.000000000  0.059236442

  length of vectors
    26.807600000 17.240100000 16.881500000     0.037302854  0.058004304  0.059236442


 FORCES acting on ions
    electron-ion (+dipol)            ewald-force                    non-local-force                 convergence-correction
 -----------------------------------------------------------------------------------------------
   -.191E+03 0.850E+02 -.780E+02   0.187E+03 -.935E+02 0.985E+02   0.433E+01 0.865E+01 -.195E+02   -.219E-02 -.243E-03 0.113E-02
   0.859E+00 0.597E+02 0.635E+02   -.503E+00 -.591E+02 -.634E+02   -.401E+00 -.969E-01 -.813E+00   -.335E-03 -.382E-03 -.542E-04
   0.244E+02 -.941E+02 0.151E+02   -.245E+02 0.943E+02 -.157E+02   -.278E+00 0.860E+00 -.222E+00   0.804E-03 0.306E-03 -.491E-04
   -.221E+02 -.941E+02 0.539E+02   0.212E+02 0.944E+02 -.537E+02   -.722E+00 -.388E+00 0.150E+01   -.676E-03 -.111E-03 0.626E-04
   0.329E+02 0.779E+02 0.120E+02   -.329E+02 -.779E+02 -.124E+02   0.233E+00 -.694E+00 -.254E+00   0.882E-03 -.487E-03 -.118E-03
   -.243E+02 0.788E+02 -.326E+02   0.242E+02 -.789E+02 0.333E+02   0.141E+00 -.775E+00 0.272E+00   0.199E-03 -.835E-03 0.505E-03
   0.943E+02 -.868E+02 -.372E+02   -.943E+02 0.871E+02 0.360E+02   0.572E-01 -.190E+00 -.998E+00   -.779E-04 -.224E-03 0.113E-03
   -.763E+02 -.927E+02 -.105E+01   0.734E+02 0.956E+02 -.481E+00   0.230E+01 -.126E+01 0.196E+00   0.217E-02 -.279E-02 0.142E-02
   0.148E+03 0.556E+02 -.147E+02   -.147E+03 -.553E+02 0.145E+02   -.980E+00 0.239E+00 0.379E+00   0.462E-03 -.202E-03 -.413E-04
   -.173E+01 0.728E+02 -.224E+02   0.201E+01 -.776E+02 0.253E+02   -.508E+00 0.490E+01 -.254E+01   -.389E-04 -.132E-03 0.417E-04
   0.881E+01 0.278E+02 0.771E+02   -.944E+01 -.293E+02 -.823E+02   0.108E+01 0.151E+01 0.508E+01   -.393E-04 -.843E-04 -.160E-03
   0.168E+02 -.583E+02 0.455E+02   -.170E+02 0.590E+02 -.462E+02   0.902E+00 -.281E+01 0.250E+01   0.100E-03 0.114E-03 -.102E-03
   -.649E+01 -.477E+02 -.594E+02   0.751E+01 0.504E+02 0.640E+02   -.114E+01 -.261E+01 -.459E+01   0.153E-03 0.988E-04 0.140E-03
   -.233E+02 -.407E+02 0.685E+02   0.251E+02 0.433E+02 -.735E+02   -.195E+01 -.227E+01 0.487E+01   -.128E-03 0.511E-04 -.234E-03
   0.372E+01 -.633E+02 -.403E+02   -.418E+01 0.659E+02 0.423E+02   0.107E+01 -.319E+01 -.327E+01   -.207E-03 0.159E-03 0.199E-03
   -.351E+01 0.590E+02 -.487E+02   0.459E+01 -.621E+02 0.516E+02   -.681E+00 0.355E+01 -.358E+01   0.246E-03 -.226E-03 0.194E-03
   0.211E+02 0.449E+02 0.598E+02   -.218E+02 -.468E+02 -.629E+02   0.941E+00 0.250E+01 0.406E+01   0.147E-03 -.172E-03 -.263E-03
   0.108E+02 0.294E+02 -.712E+02   -.122E+02 -.306E+02 0.755E+02   0.159E+01 0.142E+01 -.475E+01   -.673E-04 -.438E-04 0.421E-04
   -.126E+02 0.730E+02 0.300E+02   0.130E+02 -.776E+02 -.327E+02   -.512E+00 0.474E+01 0.242E+01   -.302E-04 -.629E-04 0.427E-04
   0.291E+02 -.623E+02 0.343E+02   -.298E+02 0.652E+02 -.365E+02   0.455E+00 -.378E+01 0.297E+01   0.121E-03 0.197E-03 -.171E-03
   0.689E+01 -.379E+02 -.697E+02   -.572E+01 0.406E+02 0.761E+02   -.120E+01 -.235E+01 -.537E+01   0.212E-03 0.804E-04 0.271E-03
   -.137E+02 -.637E+02 -.426E+02   0.136E+02 0.665E+02 0.446E+02   0.566E+00 -.386E+01 -.285E+01   0.142E-04 -.227E-03 0.123E-03
   -.311E+02 -.321E+02 0.642E+02   0.317E+02 0.338E+02 -.677E+02   -.543E+00 -.141E+01 0.451E+01   0.282E-04 -.244E-03 0.110E-03
   0.420E+02 0.276E+02 0.536E+02   -.430E+02 -.293E+02 -.581E+02   0.147E+01 0.170E+01 0.481E+01   0.267E-03 0.894E-04 0.234E-03
   0.702E+02 -.198E+02 -.221E+02   -.742E+02 0.220E+02 0.238E+02   0.443E+01 -.224E+01 -.173E+01   0.402E-03 -.138E-03 -.928E-04
   0.179E+02 0.559E+02 -.421E+02   -.171E+02 -.598E+02 0.450E+02   -.686E+00 0.408E+01 -.332E+01   0.150E-03 0.194E-03 -.156E-03
   -.862E+02 -.353E+02 -.181E+02   0.916E+02 0.385E+02 0.190E+02   -.569E+01 -.385E+01 -.123E+01   -.149E-02 -.833E-03 -.148E-03
   -.380E+02 0.731E+02 0.397E+02   0.391E+02 -.786E+02 -.438E+02   -.868E+00 0.590E+01 0.406E+01   -.494E-03 0.120E-02 0.929E-03
 -----------------------------------------------------------------------------------------------
   -.341E+01 -.825E+01 0.174E+02   0.142E-13 0.426E-13 0.426E-13   0.341E+01 0.826E+01 -.174E+02   0.594E-03 -.495E-02 0.397E-02
 
 
 POSITION                                       TOTAL-FORCE (eV/Angst)
 -----------------------------------------------------------------------------------
     18.42638      8.07478      8.95726         0.042101      0.075955      1.089120
     13.47619      8.39070      7.69896        -0.046307      0.491066     -0.728578
     12.19010      9.16637      8.12460        -0.367253      1.094493     -0.768412
     14.86349      9.15415      7.86692        -1.598634     -0.071926      1.758693
     10.94345      8.25976      8.36685         0.241617     -0.653473     -0.631848
     15.92500      8.24830      8.50239         0.120853     -0.798333      0.925762
      9.68245      9.00083      8.83841        -0.022578      0.083489     -2.187447
     17.30772      8.90246      8.57951        -0.652497      1.683719     -1.330048
      8.47843      8.03424      8.84905        -0.739853      0.544234      0.247782
     13.56797      7.43151      8.22408        -0.239594      0.026162      0.385881
     13.27400      8.08749      6.65622         0.448554      0.030350     -0.092350
     11.90213     10.05289      7.31492         0.711542     -2.069924      1.748079
     12.42064      9.69879      9.06649        -0.126676      0.094453     -0.058645
     15.23202      9.58971      6.93941        -0.078254      0.317852     -0.189387
     14.61773      9.95887      8.66446         0.618984     -0.583393     -1.336126
     11.11730      7.47828      9.16094         0.408325      0.408196     -0.614004
     10.71682      7.67782      7.40591         0.185069      0.589845      0.948663
     15.57453      7.95425      9.52469         0.179151      0.148273     -0.374069
     16.03375      7.27878      7.97880        -0.133565      0.136737     -0.260355
      9.55206      9.89425      8.13027        -0.288093     -0.943257      0.767749
      9.88941      9.41229      9.80397        -0.032896      0.385483      1.002011
     17.19892      9.82410      9.26768         0.501309     -1.111917     -0.879831
     17.43817      9.26316      7.49361         0.024969      0.299605      1.013247
      8.19234      7.67258      7.83636         0.460853     -0.026117      0.348332
      7.54768      8.52085      9.22064         0.385136      0.015378     -0.022103
      8.64047      7.17688      9.53839         0.127507      0.181343     -0.418622
     19.27270      8.64648      9.10137        -0.367659     -0.684027     -0.342415
     18.55740      7.26406      8.35182         0.237888      0.335736     -0.001079
 -----------------------------------------------------------------------------------
    total drift:                               -0.000733     -0.001356     -0.000448


--------------------------------------------------------------------------------------------------------



  FREE ENERGIE OF THE ION-ELECTRON SYSTEM (eV)
  ---------------------------------------------------
  free  energy   TOTEN  =      -150.77618075 eV

  energy  without entropy=     -150.77618075  energy(sigma->0) =     -150.77618075
 


--------------------------------------------------------------------------------------------------------


    POTLOK:  cpu time      2.3132: real time      2.3255


--------------------------------------------------------------------------------------------------------


     LOOP+:  cpu time    465.9773: real time    468.5473
    4ORBIT:  cpu time      0.0000: real time      0.0000

 total amount of memory used by VASP MPI-rank0   177422. kBytes
=======================================================================

   base      :      30000. kBytes
   nonl-proj :      33349. kBytes
   fftplans  :      38311. kBytes
   grid      :      66567. kBytes
   one-center:         18. kBytes
   wavefun   :       9177. kBytes
 
  
  
 General timing and accounting informations for this job:
 ========================================================
  
                  Total CPU time used (sec):      513.546
                            User time (sec):      510.460
                          System time (sec):        3.087
                         Elapsed time (sec):      516.967
  
                   Maximum memory used (kb):      543480.
                   Average memory used (kb):          N/A
  
                          Minor page faults:       258770
                          Major page faults:            0
                 Voluntary context switches:         5867
