unknown system                          
           1
    26.807600    0.000000    0.000000
     0.000000   17.240100    0.000000
     0.000000    0.000000   16.881500
   N    C    H 
     1     8    19
Direct configuration=     1
   0.68735674  0.46837206  0.53059606
   0.50270040  0.48669688  0.45605893
   0.45472570  0.53168863  0.48127213
   0.55445052  0.53098011  0.46600807
   0.40822196  0.47910157  0.49562226
   0.59404783  0.47843672  0.50365132
   0.36118296  0.52208706  0.52355621
   0.64562726  0.51638126  0.50821948
   0.31626954  0.46602074  0.52418616
   0.50612401  0.43105943  0.48716496
   0.49515792  0.46910900  0.39429105
   0.44398324  0.58311087  0.43330976
   0.46332518  0.56257146  0.53706635
   0.56819778  0.55624455  0.41106625
   0.54528287  0.57765716  0.51325205
   0.41470701  0.43377222  0.54266143
   0.39976785  0.44534648  0.43869993
   0.58097448  0.46138088  0.56420870
   0.59810447  0.42220067  0.47263554
   0.35631894  0.57390933  0.48160846
   0.36890320  0.54595336  0.58075238
   0.64156868  0.56984015  0.54898448
   0.65049366  0.53730289  0.44389492
   0.30559779  0.44504272  0.46419804
   0.28155012  0.49424589  0.54619787
   0.32231430  0.41629016  0.56502048
   0.71892657  0.50153287  0.53913258
   0.69224408  0.42134698  0.49473220
