13
Lattice="19.6558 0.0 0.0 0.0 17.3298 0.0 0.0 0.0 16.788899999999998" Properties=species:S:1:pos:R:3:momenta:R:3:forces:R:3:magmoms:R:1 energy=-68.37591755 stress="0.000366225447545864 9.586504259643234e-05 -0.00034713056774121165 9.586504259643234e-05 0.0004388382222485118 0.0004170409936866806 -0.00034713056774121165 0.0004170409936866806 0.0002845585399769179" dipole="_JSON [[0.0, 0.0, 0.0]]" magmom=0.0 free_energy=-68.37591755 pbc="T T T"
N       12.17914994       8.54501478       8.40013651       0.42917673       0.19509641      -0.29963981       0.36678563       0.06699670      -0.99417505       0.00000000
C        9.57652884       8.14216800       8.40297550      -0.34568342       0.51924648      -0.11694314       1.19607645       0.51947725      -0.34871320       0.00000000
C       10.85633357       9.08152416       8.37642699       0.54833542      -0.85547518      -0.17235018      -1.71644899       3.49501087      -0.30136493       0.00000000
C        8.19786984       8.82545762       8.43592954      -0.89432222      -0.06871066       0.65148590       0.71201192       1.52909712      -1.58059381       0.00000000
H        9.72803837       7.46135564       7.53320966      -0.10028045       0.01404664      -0.04419997      -0.52825020       0.27310553       0.10771129       0.00000000
H        9.66859138       7.49282722       9.25333166      -0.15227872      -0.05740271       0.27811837       0.17478638      -0.53172696       0.90436234       0.00000000
H       10.79527534       9.88831199       9.27345762      -0.10671333       0.09395249       0.11301255      -0.02747245      -1.70178472      -1.51505666       0.00000000
H       10.78891360       9.80445471       7.44784796       0.46148694      -0.00637090       0.13785018      -0.08572533      -1.23548832       1.28142288       0.00000000
H        8.07194304       9.69340486       9.14003989      -0.28396465       0.08857364      -0.18625284       0.34660543      -0.90345926      -0.03291718       0.00000000
H        8.06692491       9.33211561       7.42807909      -0.03815683       0.15735217      -0.25511190      -0.16242216      -0.49811315       0.71033204       0.00000000
H        7.39541349       8.10698497       8.55337482      -0.06862494      -0.24494095      -0.01103468      -0.32676719      -0.20942737       0.15932524       0.00000000
H       12.48364396       7.96196557       7.60777062       0.48872225       0.12134071      -0.01046018      -0.52496620       0.30417880       0.13562668       0.00000000
H       12.25266420       7.99944094       9.21372879       0.06230323       0.04329186      -0.08447430       0.57578671      -1.10786648       1.47404038       0.00000000
