   18   18 5000    1
  0.1875000E+03  0.1500000E-08  0.1500000E-08  0.1500000E-08  0.1000000E-15
  1.000000000000000E-004
  CAR 
 unknown system                          
     50      1     35
 
  0.0000000E+00  0.0000000E+00  0.0000000E+00  0.1000000E+01
      1        -22.825950   1.000000
      2        -22.458866   1.000000
      3        -21.748407   1.000000
      4        -19.652870   1.000000
      5        -19.613279   1.000000
      6        -16.830381   1.000000
      7        -16.366634   1.000000
      8        -13.958060   1.000000
      9        -13.750031   1.000000
     10        -12.879210   1.000000
     11        -11.837525   1.000000
     12        -11.487760   1.000000
     13        -11.058045   1.000000
     14        -10.543651   1.000000
     15        -10.415469   1.000000
     16         -9.606148   1.000000
     17         -9.289440   1.000000
     18         -9.012369   1.000000
     19         -8.468725   1.000000
     20         -8.383851   1.000000
     21         -8.267821   1.000000
     22         -7.980007   1.000000
     23         -7.857750   1.000000
     24         -7.799850   1.000000
     25         -6.554913   1.000000
     26         -1.346869   0.000000
     27         -0.789731   0.000000
     28         -0.728366   0.000000
     29         -0.631937   0.000000
     30         -0.287581   0.000000
     31         -0.251746   0.000000
     32         -0.154209   0.000000
     33         -0.037103   0.000000
     34          0.182753   0.000000
     35          0.442950   0.000000
