       N       E                     dE             d eps       ncg     rms          rms(c)
DAV:   1     0.441132270845E+03    0.44113E+03   -0.12861E+04    86   0.725E+02
DAV:   2     0.879345404194E+02   -0.35320E+03   -0.33345E+03   116   0.143E+02
DAV:   3    -0.103467009082E+03   -0.19140E+03   -0.19086E+03    76   0.115E+02
DAV:   4    -0.126755514587E+03   -0.23289E+02   -0.23183E+02    92   0.567E+01
DAV:   5    -0.127237143919E+03   -0.48163E+00   -0.47875E+00   100   0.890E+00    0.183E+01
RMM:   6    -0.118253851527E+03    0.89833E+01   -0.13521E+01    70   0.142E+01    0.100E+01
RMM:   7    -0.116084746429E+03    0.21691E+01   -0.98409E+00    70   0.121E+01    0.425E+00
RMM:   8    -0.115933703618E+03    0.15104E+00   -0.10066E+00    73   0.454E+00    0.226E+00
RMM:   9    -0.115859138826E+03    0.74565E-01   -0.29376E-01    70   0.234E+00    0.379E-01
RMM:  10    -0.115869114001E+03   -0.99752E-02   -0.80161E-02    81   0.108E+00    0.259E-01
RMM:  11    -0.115880241790E+03   -0.11128E-01   -0.26188E-02    70   0.676E-01    0.242E-01
RMM:  12    -0.115880964296E+03   -0.72251E-03   -0.38749E-03    70   0.291E-01    0.136E-01
RMM:  13    -0.115895948420E+03   -0.14984E-01   -0.14697E-02    70   0.406E-01    0.101E-01
RMM:  14    -0.115895886491E+03    0.61929E-04   -0.23127E-03    71   0.187E-01    0.608E-02
RMM:  15    -0.115904339111E+03   -0.84526E-02   -0.29157E-03    70   0.190E-01    0.456E-02
RMM:  16    -0.115905867305E+03   -0.15282E-02   -0.90800E-04    74   0.892E-02    0.323E-02
RMM:  17    -0.115907234498E+03   -0.13672E-02   -0.57787E-04    71   0.817E-02    0.243E-02
RMM:  18    -0.115908494500E+03   -0.12600E-02   -0.15146E-04    65   0.456E-02    0.170E-02
RMM:  19    -0.115908991051E+03   -0.49655E-03   -0.84143E-05    60   0.274E-02    0.487E-03
RMM:  20    -0.115909141749E+03   -0.15070E-03   -0.39087E-05    55   0.205E-02    0.450E-03
RMM:  21    -0.115909222781E+03   -0.81033E-04   -0.66063E-06    45   0.967E-03    0.168E-03
RMM:  22    -0.115909249763E+03   -0.26981E-04   -0.37753E-06    45   0.715E-03    0.153E-03
RMM:  23    -0.115909265694E+03   -0.15932E-04   -0.16189E-06    40   0.490E-03    0.124E-03
RMM:  24    -0.115909274368E+03   -0.86730E-05   -0.45629E-07    25   0.318E-03
   1 F= -.11615200E+03 E0= -.11615200E+03  d E =-.116152E+03
       N       E                     dE             d eps       ncg     rms          rms(c)
DAV:   1    -0.115935747994E+03   -0.26482E-01   -0.15419E+00    92   0.692E+00    0.278E-01
RMM:   2    -0.115937078896E+03   -0.13309E-02   -0.25668E-02    70   0.850E-01    0.165E-01
RMM:   3    -0.115937217684E+03   -0.13879E-03   -0.40550E-03    70   0.363E-01    0.880E-02
RMM:   4    -0.115937342318E+03   -0.12463E-03   -0.12169E-03    71   0.187E-01    0.394E-02
RMM:   5    -0.115937375938E+03   -0.33620E-04   -0.28381E-04    77   0.864E-02    0.219E-02
RMM:   6    -0.115937384948E+03   -0.90104E-05   -0.51318E-05    63   0.368E-02
   2 F= -.11618008E+03 E0= -.11618008E+03  d E =-.280759E-01
       N       E                     dE             d eps       ncg     rms          rms(c)
DAV:   1    -0.115949940553E+03   -0.12565E-01   -0.10158E+00    73   0.550E+00    0.257E-01
RMM:   2    -0.115950619016E+03   -0.67846E-03   -0.16590E-02    70   0.680E-01    0.144E-01
RMM:   3    -0.115950686369E+03   -0.67353E-04   -0.25224E-03    70   0.282E-01    0.700E-02
RMM:   4    -0.115950767955E+03   -0.81586E-04   -0.78334E-04    70   0.147E-01    0.238E-02
RMM:   5    -0.115950786390E+03   -0.18435E-04   -0.17796E-04    69   0.647E-02    0.161E-02
RMM:   6    -0.115950793937E+03   -0.75470E-05   -0.33079E-05    51   0.278E-02
   3 F= -.11619355E+03 E0= -.11619355E+03  d E =-.134746E-01
       N       E                     dE             d eps       ncg     rms          rms(c)
DAV:   1    -0.115965091651E+03   -0.14305E-01   -0.27138E+00    73   0.874E+00    0.386E-01
RMM:   2    -0.115967725602E+03   -0.26340E-02   -0.44935E-02    70   0.107E+00    0.208E-01
RMM:   3    -0.115968133689E+03   -0.40809E-03   -0.68787E-03    70   0.457E-01    0.124E-01
RMM:   4    -0.115968342926E+03   -0.20924E-03   -0.16705E-03    71   0.220E-01    0.666E-02
RMM:   5    -0.115968432802E+03   -0.89876E-04   -0.48280E-04    75   0.108E-01    0.262E-02
RMM:   6    -0.115968455420E+03   -0.22618E-04   -0.58957E-05    59   0.422E-02    0.650E-03
RMM:   7    -0.115968464722E+03   -0.93018E-05   -0.15728E-05    47   0.219E-02
   4 F= -.11621113E+03 E0= -.11621113E+03  d E =-.175739E-01
       N       E                     dE             d eps       ncg     rms          rms(c)
DAV:   1    -0.115971756086E+03   -0.33007E-02   -0.13860E+01    70   0.198E+01    0.955E-01
RMM:   2    -0.115988023752E+03   -0.16268E-01   -0.22813E-01    70   0.244E+00    0.458E-01
RMM:   3    -0.115990367726E+03   -0.23440E-02   -0.34663E-02    70   0.103E+00    0.264E-01
RMM:   4    -0.115991102131E+03   -0.73441E-03   -0.78213E-03    71   0.486E-01    0.101E-01
RMM:   5    -0.115991446733E+03   -0.34460E-03   -0.23997E-03    77   0.241E-01    0.354E-02
RMM:   6    -0.115991510501E+03   -0.63768E-04   -0.40874E-04    78   0.106E-01    0.293E-02
RMM:   7    -0.115991530864E+03   -0.20363E-04   -0.56605E-05    55   0.346E-02    0.175E-02
RMM:   8    -0.115991556284E+03   -0.25420E-04   -0.10672E-05    46   0.154E-02    0.587E-03
RMM:   9    -0.115991577457E+03   -0.21173E-04   -0.47597E-06    45   0.988E-03    0.542E-03
RMM:  10    -0.115991585721E+03   -0.82643E-05   -0.14122E-06    41   0.558E-03
   5 F= -.11623422E+03 E0= -.11623422E+03  d E =-.230895E-01
       N       E                     dE             d eps       ncg     rms          rms(c)
DAV:   1    -0.115992916634E+03   -0.13392E-02   -0.35056E-02    89   0.108E+00    0.461E-02
RMM:   2    -0.115992937795E+03   -0.21160E-04   -0.52930E-04    70   0.133E-01    0.277E-02
RMM:   3    -0.115992940012E+03   -0.22171E-05   -0.11723E-04    70   0.573E-02    0.846E-03
RMM:   4    -0.115992945730E+03   -0.57182E-05   -0.26991E-05    49   0.277E-02
   6 F= -.11623555E+03 E0= -.11623555E+03  d E =-.133653E-02
       N       E                     dE             d eps       ncg     rms          rms(c)
DAV:   1    -0.115997484060E+03   -0.45440E-02   -0.50057E-01    70   0.368E+00    0.154E-01
RMM:   2    -0.115997981473E+03   -0.49741E-03   -0.79215E-03    70   0.452E-01    0.859E-02
RMM:   3    -0.115998121948E+03   -0.14047E-03   -0.11631E-03    70   0.189E-01    0.404E-02
RMM:   4    -0.115998164131E+03   -0.42183E-04   -0.26067E-04    70   0.888E-02    0.146E-02
RMM:   5    -0.115998174557E+03   -0.10426E-04   -0.81931E-05    61   0.432E-02    0.603E-03
RMM:   6    -0.115998176913E+03   -0.23560E-05   -0.11398E-05    47   0.189E-02
   7 F= -.11624074E+03 E0= -.11624074E+03  d E =-.519141E-02
       N       E                     dE             d eps       ncg     rms          rms(c)
DAV:   1    -0.116004265417E+03   -0.60909E-02   -0.18243E+00    70   0.696E+00    0.295E-01
RMM:   2    -0.116006264559E+03   -0.19991E-02   -0.29308E-02    70   0.853E-01    0.161E-01
RMM:   3    -0.116006695551E+03   -0.43099E-03   -0.43433E-03    71   0.360E-01    0.839E-02
RMM:   4    -0.116006838588E+03   -0.14304E-03   -0.94048E-04    70   0.165E-01    0.334E-02
RMM:   5    -0.116006881787E+03   -0.43199E-04   -0.29790E-04    73   0.816E-02    0.142E-02
RMM:   6    -0.116006893323E+03   -0.11536E-04   -0.42056E-05    51   0.352E-02    0.562E-03
RMM:   7    -0.116006900140E+03   -0.68172E-05   -0.68747E-06    46   0.149E-02
   8 F= -.11624937E+03 E0= -.11624937E+03  d E =-.862635E-02
       N       E                     dE             d eps       ncg     rms          rms(c)
DAV:   1    -0.116010816774E+03   -0.39235E-02   -0.15242E-01    76   0.219E+00    0.844E-02
RMM:   2    -0.116010922556E+03   -0.10578E-03   -0.22436E-03    70   0.253E-01    0.513E-02
RMM:   3    -0.116010958162E+03   -0.35606E-04   -0.39965E-04    70   0.110E-01    0.188E-02
RMM:   4    -0.116010975331E+03   -0.17169E-04   -0.10476E-04    71   0.539E-02    0.952E-03
RMM:   5    -0.116010979518E+03   -0.41874E-05   -0.19454E-05    49   0.237E-02
   9 F= -.11625341E+03 E0= -.11625341E+03  d E =-.404345E-02
       N       E                     dE             d eps       ncg     rms          rms(c)
DAV:   1    -0.116015274150E+03   -0.42988E-02   -0.28940E-01    70   0.280E+00    0.115E-01
RMM:   2    -0.116015523915E+03   -0.24977E-03   -0.46718E-03    70   0.339E-01    0.685E-02
RMM:   3    -0.116015589341E+03   -0.65426E-04   -0.70006E-04    71   0.143E-01    0.365E-02
RMM:   4    -0.116015617343E+03   -0.28002E-04   -0.18493E-04    68   0.713E-02    0.146E-02
RMM:   5    -0.116015625926E+03   -0.85838E-05   -0.47755E-05    55   0.329E-02
  10 F= -.11625800E+03 E0= -.11625800E+03  d E =-.458442E-02
       N       E                     dE             d eps       ncg     rms          rms(c)
DAV:   1    -0.116017555452E+03   -0.19381E-02   -0.49990E-02    70   0.121E+00    0.640E-02
RMM:   2    -0.116017582550E+03   -0.27098E-04   -0.99554E-04    70   0.155E-01    0.371E-02
RMM:   3    -0.116017584514E+03   -0.19639E-05   -0.15630E-04    67   0.671E-02    0.216E-02
RMM:   4    -0.116017591342E+03   -0.68286E-05   -0.58823E-05    56   0.376E-02
  11 F= -.11625999E+03 E0= -.11625999E+03  d E =-.198872E-02
       N       E                     dE             d eps       ncg     rms          rms(c)
DAV:   1    -0.116022206935E+03   -0.46224E-02   -0.30972E-01    70   0.288E+00    0.116E-01
RMM:   2    -0.116022494629E+03   -0.28769E-03   -0.47445E-03    70   0.343E-01    0.678E-02
RMM:   3    -0.116022583811E+03   -0.89182E-04   -0.70068E-04    71   0.145E-01    0.304E-02
RMM:   4    -0.116022610298E+03   -0.26487E-04   -0.15673E-04    66   0.671E-02    0.119E-02
RMM:   5    -0.116022617705E+03   -0.74069E-05   -0.46055E-05    55   0.321E-02
  12 F= -.11626498E+03 E0= -.11626498E+03  d E =-.499065E-02
       N       E                     dE             d eps       ncg     rms          rms(c)
DAV:   1    -0.116026282038E+03   -0.36717E-02   -0.19593E-01    70   0.231E+00    0.907E-02
RMM:   2    -0.116026463025E+03   -0.18099E-03   -0.29853E-03    70   0.275E-01    0.531E-02
RMM:   3    -0.116026523565E+03   -0.60539E-04   -0.45073E-04    71   0.117E-01    0.226E-02
RMM:   4    -0.116026540930E+03   -0.17365E-04   -0.99623E-05    60   0.543E-02    0.810E-03
RMM:   5    -0.116026547490E+03   -0.65608E-05   -0.30324E-05    54   0.261E-02
  13 F= -.11626890E+03 E0= -.11626890E+03  d E =-.391971E-02
       N       E                     dE             d eps       ncg     rms          rms(c)
DAV:   1    -0.116030148781E+03   -0.36079E-02   -0.21197E-01    70   0.240E+00    0.960E-02
RMM:   2    -0.116030342954E+03   -0.19417E-03   -0.32411E-03    70   0.285E-01    0.555E-02
RMM:   3    -0.116030405725E+03   -0.62772E-04   -0.48389E-04    71   0.121E-01    0.256E-02
RMM:   4    -0.116030425837E+03   -0.20112E-04   -0.10821E-04    60   0.563E-02    0.986E-03
RMM:   5    -0.116030432207E+03   -0.63695E-05   -0.31834E-05    54   0.269E-02
  14 F= -.11627276E+03 E0= -.11627276E+03  d E =-.386540E-02
       N       E                     dE             d eps       ncg     rms          rms(c)
DAV:   1    -0.116035794923E+03   -0.53691E-02   -0.52896E-01    70   0.379E+00    0.151E-01
RMM:   2    -0.116036299164E+03   -0.50424E-03   -0.80427E-03    70   0.449E-01    0.876E-02
RMM:   3    -0.116036438457E+03   -0.13929E-03   -0.11981E-03    71   0.190E-01    0.401E-02
RMM:   4    -0.116036485517E+03   -0.47059E-04   -0.26491E-04    69   0.881E-02    0.156E-02
RMM:   5    -0.116036498939E+03   -0.13422E-04   -0.85416E-05    62   0.431E-02    0.755E-03
RMM:   6    -0.116036504222E+03   -0.52828E-05   -0.11123E-05    47   0.184E-02
  15 F= -.11627880E+03 E0= -.11627880E+03  d E =-.604014E-02
       N       E                     dE             d eps       ncg     rms          rms(c)
DAV:   1    -0.116039424275E+03   -0.29253E-02   -0.14040E-01    70   0.197E+00    0.794E-02
RMM:   2    -0.116039545595E+03   -0.12132E-03   -0.21667E-03    70   0.234E-01    0.468E-02
RMM:   3    -0.116039586054E+03   -0.40459E-04   -0.32160E-04    71   0.986E-02    0.208E-02
RMM:   4    -0.116039600944E+03   -0.14891E-04   -0.74315E-05    58   0.465E-02    0.666E-03
RMM:   5    -0.116039605305E+03   -0.43602E-05   -0.19221E-05    49   0.212E-02
  16 F= -.11628190E+03 E0= -.11628190E+03  d E =-.310087E-02
       N       E                     dE             d eps       ncg     rms          rms(c)
DAV:   1    -0.116043733412E+03   -0.41325E-02   -0.30501E-01    70   0.288E+00    0.115E-01
RMM:   2    -0.116044017272E+03   -0.28386E-03   -0.46289E-03    70   0.340E-01    0.669E-02
RMM:   3    -0.116044101297E+03   -0.84025E-04   -0.68968E-04    71   0.144E-01    0.302E-02
RMM:   4    -0.116044129858E+03   -0.28560E-04   -0.15366E-04    64   0.667E-02    0.118E-02
RMM:   5    -0.116044138072E+03   -0.82149E-05   -0.46707E-05    55   0.321E-02
  17 F= -.11628641E+03 E0= -.11628641E+03  d E =-.450377E-02
       N       E                     dE             d eps       ncg     rms          rms(c)
DAV:   1    -0.116049030829E+03   -0.49010E-02   -0.42953E-01    70   0.342E+00    0.135E-01
RMM:   2    -0.116049436934E+03   -0.40611E-03   -0.64687E-03    70   0.403E-01    0.793E-02
RMM:   3    -0.116049556969E+03   -0.12004E-03   -0.96511E-04    71   0.171E-01    0.330E-02
RMM:   4    -0.116049594006E+03   -0.37037E-04   -0.21086E-04    68   0.790E-02    0.116E-02
RMM:   5    -0.116049605890E+03   -0.11885E-04   -0.70015E-05    58   0.386E-02    0.443E-03
RMM:   6    -0.116049610046E+03   -0.41559E-05   -0.85587E-06    46   0.163E-02
  18 F= -.11629186E+03 E0= -.11629186E+03  d E =-.544796E-02
       N       E                     dE             d eps       ncg     rms          rms(c)
DAV:   1    -0.116054031525E+03   -0.44256E-02   -0.34168E-01    70   0.305E+00    0.119E-01
RMM:   2    -0.116054347031E+03   -0.31551E-03   -0.51029E-03    70   0.356E-01    0.709E-02
RMM:   3    -0.116054443411E+03   -0.96380E-04   -0.75258E-04    71   0.150E-01    0.298E-02
RMM:   4    -0.116054473092E+03   -0.29682E-04   -0.16401E-04    65   0.691E-02    0.108E-02
RMM:   5    -0.116054482050E+03   -0.89578E-05   -0.50558E-05    55   0.330E-02
  19 F= -.11629670E+03 E0= -.11629670E+03  d E =-.484211E-02
       N       E                     dE             d eps       ncg     rms          rms(c)
DAV:   1    -0.116060171525E+03   -0.56984E-02   -0.67215E-01    70   0.427E+00    0.167E-01
RMM:   2    -0.116060809174E+03   -0.63765E-03   -0.10064E-02    70   0.501E-01    0.994E-02
RMM:   3    -0.116060991692E+03   -0.18252E-03   -0.15000E-03    71   0.212E-01    0.410E-02
RMM:   4    -0.116061045449E+03   -0.53756E-04   -0.32820E-04    69   0.982E-02    0.147E-02
RMM:   5    -0.116061062592E+03   -0.17144E-04   -0.11192E-04    65   0.479E-02    0.693E-03
RMM:   6    -0.116061068870E+03   -0.62774E-05   -0.10865E-05    47   0.196E-02
  20 F= -.11630324E+03 E0= -.11630324E+03  d E =-.654638E-02
       N       E                     dE             d eps       ncg     rms          rms(c)
DAV:   1    -0.116063657602E+03   -0.25950E-02   -0.11507E-01    70   0.178E+00    0.689E-02
RMM:   2    -0.116063763669E+03   -0.10607E-03   -0.17500E-03    70   0.209E-01    0.421E-02
RMM:   3    -0.116063796934E+03   -0.33265E-04   -0.26026E-04    71   0.884E-02    0.170E-02
RMM:   4    -0.116063808479E+03   -0.11545E-04   -0.58853E-05    56   0.412E-02    0.557E-03
RMM:   5    -0.116063813291E+03   -0.48112E-05   -0.16079E-05    49   0.186E-02
  21 F= -.11630599E+03 E0= -.11630599E+03  d E =-.274247E-02
       N       E                     dE             d eps       ncg     rms          rms(c)
DAV:   1    -0.116069352464E+03   -0.55440E-02   -0.72125E-01    70   0.442E+00    0.173E-01
RMM:   2    -0.116070027768E+03   -0.67530E-03   -0.10774E-02    70   0.516E-01    0.103E-01
RMM:   3    -0.116070220673E+03   -0.19291E-03   -0.16008E-03    71   0.219E-01    0.434E-02
RMM:   4    -0.116070276925E+03   -0.56252E-04   -0.35460E-04    70   0.102E-01    0.157E-02
RMM:   5    -0.116070293709E+03   -0.16784E-04   -0.11852E-04    65   0.490E-02    0.796E-03
RMM:   6    -0.116070299831E+03   -0.61219E-05   -0.11646E-05    47   0.202E-02
  22 F= -.11631242E+03 E0= -.11631242E+03  d E =-.643311E-02
       N       E                     dE             d eps       ncg     rms          rms(c)
DAV:   1    -0.116075424182E+03   -0.51305E-02   -0.66668E-01    70   0.426E+00    0.163E-01
RMM:   2    -0.116076060483E+03   -0.63630E-03   -0.98893E-03    70   0.495E-01    0.991E-02
RMM:   3    -0.116076237671E+03   -0.17719E-03   -0.14562E-03    71   0.210E-01    0.370E-02
RMM:   4    -0.116076286114E+03   -0.48443E-04   -0.31176E-04    69   0.961E-02    0.121E-02
RMM:   5    -0.116076304173E+03   -0.18060E-04   -0.10843E-04    64   0.467E-02    0.369E-03
RMM:   6    -0.116076309417E+03   -0.52432E-05   -0.10170E-05    47   0.189E-02
  23 F= -.11631840E+03 E0= -.11631840E+03  d E =-.597735E-02
       N       E                     dE             d eps       ncg     rms          rms(c)
DAV:   1    -0.116079562494E+03   -0.32583E-02   -0.28241E-01    70   0.276E+00    0.105E-01
RMM:   2    -0.116079832156E+03   -0.26966E-03   -0.42374E-03    70   0.323E-01    0.642E-02
RMM:   3    -0.116079910328E+03   -0.78172E-04   -0.62429E-04    71   0.137E-01    0.250E-02
RMM:   4    -0.116079932823E+03   -0.22495E-04   -0.13656E-04    62   0.634E-02    0.815E-03
RMM:   5    -0.116079941540E+03   -0.87168E-05   -0.41514E-05    54   0.300E-02
  24 F= -.11632201E+03 E0= -.11632201E+03  d E =-.360869E-02
       N       E                     dE             d eps       ncg     rms          rms(c)
DAV:   1    -0.116079515848E+03    0.41698E-03   -0.97053E-03    76   0.513E-01    0.244E-02
RMM:   2    -0.116079527650E+03   -0.11802E-04   -0.17007E-04    62   0.638E-02    0.139E-02
RMM:   3    -0.116079532605E+03   -0.49548E-05   -0.24019E-05    49   0.263E-02
  25 F= -.11632161E+03 E0= -.11632161E+03  d E =0.394758E-03
       N       E                     dE             d eps       ncg     rms          rms(c)
DAV:   1    -0.116080466082E+03   -0.93843E-03   -0.25936E-02    70   0.835E-01    0.318E-02
RMM:   2    -0.116080492705E+03   -0.26623E-04   -0.40260E-04    70   0.996E-02    0.192E-02
RMM:   3    -0.116080500062E+03   -0.73571E-05   -0.59026E-05    56   0.421E-02
  26 F= -.11632257E+03 E0= -.11632257E+03  d E =-.960841E-03
       N       E                     dE             d eps       ncg     rms          rms(c)
DAV:   1    -0.116084492850E+03   -0.40001E-02   -0.24153E+00    70   0.800E+00    0.305E-01
RMM:   2    -0.116087175124E+03   -0.26823E-02   -0.37727E-02    70   0.963E-01    0.183E-01
RMM:   3    -0.116087701352E+03   -0.52623E-03   -0.54297E-03    70   0.406E-01    0.765E-02
RMM:   4    -0.116087862274E+03   -0.16092E-03   -0.12306E-03    71   0.190E-01    0.254E-02
RMM:   5    -0.116087910412E+03   -0.48138E-04   -0.39793E-04    75   0.910E-02    0.811E-03
RMM:   6    -0.116087919466E+03   -0.90543E-05   -0.44710E-05    51   0.370E-02
  27 F= -.11633000E+03 E0= -.11633000E+03  d E =-.742425E-02
       N       E                     dE             d eps       ncg     rms          rms(c)
DAV:   1    -0.116086785085E+03    0.11253E-02   -0.78245E-02    70   0.144E+00    0.612E-02
RMM:   2    -0.116086872083E+03   -0.86998E-04   -0.13393E-03    70   0.179E-01    0.358E-02
RMM:   3    -0.116086894439E+03   -0.22356E-04   -0.19392E-04    66   0.752E-02    0.203E-02
RMM:   4    -0.116086908352E+03   -0.13913E-04   -0.48648E-05    54   0.365E-02    0.910E-03
RMM:   5    -0.116086914939E+03   -0.65870E-05   -0.99543E-06    46   0.166E-02
  28 F= -.11632897E+03 E0= -.11632897E+03  d E =0.102243E-02
       N       E                     dE             d eps       ncg     rms          rms(c)
DAV:   1    -0.116088075366E+03   -0.11670E-02   -0.73509E-02    70   0.139E+00    0.529E-02
RMM:   2    -0.116088154033E+03   -0.78667E-04   -0.11366E-03    70   0.166E-01    0.318E-02
RMM:   3    -0.116088172885E+03   -0.18852E-04   -0.16045E-04    66   0.695E-02    0.137E-02
RMM:   4    -0.116088178273E+03   -0.53875E-05   -0.34295E-05    54   0.316E-02
  29 F= -.11633024E+03 E0= -.11633024E+03  d E =-.126666E-02
       N       E                     dE             d eps       ncg     rms          rms(c)
DAV:   1    -0.116088987860E+03   -0.81497E-03   -0.32212E-02    73   0.921E-01    0.359E-02
RMM:   2    -0.116089022209E+03   -0.34349E-04   -0.52517E-04    70   0.112E-01    0.219E-02
RMM:   3    -0.116089030335E+03   -0.81257E-05   -0.76926E-05    57   0.476E-02
  30 F= -.11633110E+03 E0= -.11633110E+03  d E =-.856636E-03
       N       E                     dE             d eps       ncg     rms          rms(c)
DAV:   1    -0.116089949634E+03   -0.92742E-03   -0.42322E-02    70   0.106E+00    0.413E-02
RMM:   2    -0.116089992329E+03   -0.42695E-04   -0.69240E-04    70   0.130E-01    0.254E-02
RMM:   3    -0.116090004053E+03   -0.11724E-04   -0.10743E-04    59   0.560E-02    0.116E-02
RMM:   4    -0.116090007789E+03   -0.37355E-05   -0.25078E-05    54   0.262E-02
  31 F= -.11633207E+03 E0= -.11633207E+03  d E =-.970813E-03
       N       E                     dE             d eps       ncg     rms          rms(c)
DAV:   1    -0.116083213507E+03    0.67905E-02   -0.15753E+01    70   0.203E+01    0.816E-01
RMM:   2    -0.116102495628E+03   -0.19282E-01   -0.25374E-01    70   0.248E+00    0.464E-01
RMM:   3    -0.116105240483E+03   -0.27449E-02   -0.36163E-02    71   0.104E+00    0.234E-01
RMM:   4    -0.116106025326E+03   -0.78484E-03   -0.80116E-03    70   0.482E-01    0.791E-02
RMM:   5    -0.116106350817E+03   -0.32549E-03   -0.25791E-03    81   0.232E-01    0.402E-02
RMM:   6    -0.116106419030E+03   -0.68213E-04   -0.30794E-04    67   0.954E-02    0.120E-02
RMM:   7    -0.116106451026E+03   -0.31996E-04   -0.47589E-05    52   0.381E-02    0.868E-03
RMM:   8    -0.116106506656E+03   -0.55630E-04   -0.21102E-05    48   0.231E-02    0.401E-03
RMM:   9    -0.116106512883E+03   -0.62271E-05   -0.39739E-06    44   0.106E-02
  32 F= -.11634852E+03 E0= -.11634852E+03  d E =-.164572E-01
       N       E                     dE             d eps       ncg     rms          rms(c)
DAV:   1    -0.116102571916E+03    0.39347E-02   -0.68545E-01    70   0.425E+00    0.163E-01
RMM:   2    -0.116103300502E+03   -0.72859E-03   -0.10633E-02    70   0.510E-01    0.971E-02
RMM:   3    -0.116103488179E+03   -0.18768E-03   -0.15265E-03    70   0.215E-01    0.412E-02
RMM:   4    -0.116103551961E+03   -0.63782E-04   -0.34624E-04    71   0.101E-01    0.135E-02
RMM:   5    -0.116103568811E+03   -0.16850E-04   -0.10880E-04    62   0.478E-02    0.594E-03
RMM:   6    -0.116103572681E+03   -0.38694E-05   -0.12888E-05    47   0.202E-02
  33 F= -.11634561E+03 E0= -.11634561E+03  d E =0.291296E-02
       N       E                     dE             d eps       ncg     rms          rms(c)
DAV:   1    -0.116105211496E+03   -0.16427E-02   -0.25868E-01    70   0.259E+00    0.988E-02
RMM:   2    -0.116105472777E+03   -0.26128E-03   -0.39980E-03    70   0.310E-01    0.595E-02
RMM:   3    -0.116105549126E+03   -0.76349E-04   -0.57085E-04    70   0.131E-01    0.255E-02
RMM:   4    -0.116105571541E+03   -0.22414E-04   -0.13070E-04    62   0.616E-02    0.821E-03
RMM:   5    -0.116105575167E+03   -0.36260E-05   -0.36893E-05    53   0.286E-02
  34 F= -.11634760E+03 E0= -.11634760E+03  d E =-.198670E-02
       N       E                     dE             d eps       ncg     rms          rms(c)
DAV:   1    -0.116105924991E+03   -0.35345E-03   -0.76587E-03    73   0.433E-01    0.170E-02
RMM:   2    -0.116105932766E+03   -0.77751E-05   -0.12741E-04    59   0.541E-02    0.103E-02
RMM:   3    -0.116105934754E+03   -0.19882E-05   -0.19790E-05    50   0.231E-02
  35 F= -.11634796E+03 E0= -.11634796E+03  d E =-.361993E-03
       N       E                     dE             d eps       ncg     rms          rms(c)
DAV:   1    -0.116108073970E+03   -0.21412E-02   -0.56363E-01    70   0.377E+00    0.143E-01
RMM:   2    -0.116108653191E+03   -0.57922E-03   -0.87780E-03    70   0.454E-01    0.872E-02
RMM:   3    -0.116108803664E+03   -0.15047E-03   -0.12603E-03    70   0.192E-01    0.360E-02
RMM:   4    -0.116108848874E+03   -0.45210E-04   -0.30389E-04    70   0.902E-02    0.116E-02
RMM:   5    -0.116108859154E+03   -0.10280E-04   -0.80184E-05    58   0.413E-02    0.508E-03
RMM:   6    -0.116108861782E+03   -0.26280E-05   -0.10142E-05    47   0.178E-02
  36 F= -.11635088E+03 E0= -.11635088E+03  d E =-.291527E-02
       N       E                     dE             d eps       ncg     rms          rms(c)
DAV:   1    -0.116108666627E+03    0.19253E-03   -0.44076E-03    76   0.346E-01    0.133E-02
RMM:   2    -0.116108673023E+03   -0.63963E-05   -0.66766E-05    57   0.409E-02
  37 F= -.11635069E+03 E0= -.11635069E+03  d E =0.187071E-03
       N       E                     dE             d eps       ncg     rms          rms(c)
DAV:   1    -0.116109126925E+03   -0.46030E-03   -0.16206E-02    70   0.634E-01    0.229E-02
RMM:   2    -0.116109144912E+03   -0.17986E-04   -0.24479E-04    67   0.758E-02    0.133E-02
RMM:   3    -0.116109150254E+03   -0.53424E-05   -0.34806E-05    52   0.314E-02
  38 F= -.11635117E+03 E0= -.11635117E+03  d E =-.479562E-03
       N       E                     dE             d eps       ncg     rms          rms(c)
DAV:   1    -0.116109468200E+03   -0.32329E-03   -0.72016E-03    70   0.423E-01    0.174E-02
RMM:   2    -0.116109474835E+03   -0.66348E-05   -0.12257E-04    59   0.533E-02    0.108E-02
RMM:   3    -0.116109477872E+03   -0.30371E-05   -0.20093E-05    52   0.229E-02
  39 F= -.11635149E+03 E0= -.11635149E+03  d E =-.323748E-03
       N       E                     dE             d eps       ncg     rms          rms(c)
DAV:   1    -0.116110124692E+03   -0.64986E-03   -0.34047E-02    70   0.915E-01    0.350E-02
RMM:   2    -0.116110158781E+03   -0.34089E-04   -0.54121E-04    70   0.112E-01    0.215E-02
RMM:   3    -0.116110169805E+03   -0.11024E-04   -0.79782E-05    57   0.475E-02    0.895E-03
RMM:   4    -0.116110173315E+03   -0.35097E-05   -0.18845E-05    51   0.219E-02
  40 F= -.11635219E+03 E0= -.11635219E+03  d E =-.697195E-03
       N       E                     dE             d eps       ncg     rms          rms(c)
DAV:   1    -0.116110950666E+03   -0.78086E-03   -0.53088E-02    70   0.114E+00    0.433E-02
RMM:   2    -0.116111003842E+03   -0.53176E-04   -0.83990E-04    70   0.138E-01    0.266E-02
RMM:   3    -0.116111019808E+03   -0.15966E-04   -0.12042E-04    59   0.582E-02    0.109E-02
RMM:   4    -0.116111024467E+03   -0.46590E-05   -0.28073E-05    53   0.264E-02
  41 F= -.11635304E+03 E0= -.11635304E+03  d E =-.851903E-03
       N       E                     dE             d eps       ncg     rms          rms(c)
DAV:   1    -0.116112323587E+03   -0.13038E-02   -0.36836E+00    70   0.950E+00    0.367E-01
RMM:   2    -0.116116491386E+03   -0.41678E-02   -0.57931E-02    70   0.115E+00    0.220E-01
RMM:   3    -0.116117236236E+03   -0.74485E-03   -0.81416E-03    70   0.481E-01    0.968E-02
RMM:   4    -0.116117491681E+03   -0.25545E-03   -0.19667E-03    72   0.226E-01    0.311E-02
RMM:   5    -0.116117559768E+03   -0.68087E-04   -0.51348E-04    74   0.103E-01    0.154E-02
RMM:   6    -0.116117574971E+03   -0.15203E-04   -0.59094E-05    52   0.435E-02    0.404E-03
RMM:   7    -0.116117588126E+03   -0.13155E-04   -0.18988E-05    47   0.223E-02    0.369E-03
RMM:   8    -0.116117608946E+03   -0.20820E-04   -0.53172E-06    45   0.110E-02    0.162E-03
RMM:   9    -0.116117616196E+03   -0.72501E-05   -0.14345E-06    35   0.623E-03
  42 F= -.11635962E+03 E0= -.11635962E+03  d E =-.658221E-02
       N       E                     dE             d eps       ncg     rms          rms(c)
DAV:   1    -0.116118232632E+03   -0.62369E-03   -0.46942E-02    73   0.107E+00    0.409E-02
RMM:   2    -0.116118281220E+03   -0.48588E-04   -0.74328E-04    70   0.130E-01    0.247E-02
RMM:   3    -0.116118299325E+03   -0.18105E-04   -0.10572E-04    57   0.546E-02    0.106E-02
RMM:   4    -0.116118305617E+03   -0.62920E-05   -0.24383E-05    52   0.249E-02
  43 F= -.11636032E+03 E0= -.11636032E+03  d E =-.695278E-03
       N       E                     dE             d eps       ncg     rms          rms(c)
DAV:   1    -0.116118315548E+03   -0.16224E-04   -0.21981E-04    92   0.804E-02    0.601E-03
RMM:   2    -0.116118315938E+03   -0.38984E-06   -0.59169E-06    43   0.124E-02
  44 F= -.11636033E+03 E0= -.11636033E+03  d E =-.917803E-05
       N       E                     dE             d eps       ncg     rms          rms(c)
DAV:   1    -0.116118558285E+03   -0.24274E-03   -0.74071E-03    76   0.423E-01    0.166E-02
RMM:   2    -0.116118565911E+03   -0.76257E-05   -0.12056E-04    58   0.523E-02    0.101E-02
RMM:   3    -0.116118569105E+03   -0.31947E-05   -0.17612E-05    48   0.220E-02
  45 F= -.11636058E+03 E0= -.11636058E+03  d E =-.256140E-03
       N       E                     dE             d eps       ncg     rms          rms(c)
DAV:   1    -0.116119327359E+03   -0.76145E-03   -0.95306E-02    70   0.152E+00    0.583E-02
RMM:   2    -0.116119424340E+03   -0.96981E-04   -0.15336E-03    70   0.187E-01    0.354E-02
RMM:   3    -0.116119454535E+03   -0.30196E-04   -0.22143E-04    63   0.792E-02    0.153E-02
RMM:   4    -0.116119463547E+03   -0.90117E-05   -0.52839E-05    56   0.368E-02
  46 F= -.11636148E+03 E0= -.11636148E+03  d E =-.900765E-03
       N       E                     dE             d eps       ncg     rms          rms(c)
DAV:   1    -0.116112455624E+03    0.69989E-02   -0.10148E+01    70   0.157E+01    0.613E-01
RMM:   2    -0.116124879107E+03   -0.12423E-01   -0.16503E-01    70   0.194E+00    0.361E-01
RMM:   3    -0.116126763728E+03   -0.18846E-02   -0.22973E-02    70   0.808E-01    0.174E-01
RMM:   4    -0.116127313069E+03   -0.54934E-03   -0.52632E-03    71   0.379E-01    0.548E-02
RMM:   5    -0.116127527429E+03   -0.21436E-03   -0.16929E-03    80   0.179E-01    0.288E-02
RMM:   6    -0.116127570262E+03   -0.42833E-04   -0.18642E-04    64   0.732E-02    0.826E-03
RMM:   7    -0.116127594699E+03   -0.24437E-04   -0.27368E-05    49   0.286E-02    0.555E-03
RMM:   8    -0.116127637587E+03   -0.42888E-04   -0.13649E-05    47   0.178E-02    0.233E-03
RMM:   9    -0.116127645354E+03   -0.77676E-05   -0.27155E-06    42   0.804E-03
  47 F= -.11636973E+03 E0= -.11636973E+03  d E =-.824887E-02
       N       E                     dE             d eps       ncg     rms          rms(c)
DAV:   1    -0.116125921660E+03    0.17159E-02   -0.31515E-01    73   0.277E+00    0.108E-01
RMM:   2    -0.116126256870E+03   -0.33521E-03   -0.50177E-03    70   0.339E-01    0.640E-02
RMM:   3    -0.116126354865E+03   -0.97995E-04   -0.70828E-04    70   0.143E-01    0.281E-02
RMM:   4    -0.116126389685E+03   -0.34821E-04   -0.16875E-04    62   0.669E-02    0.886E-03
RMM:   5    -0.116126397639E+03   -0.79540E-05   -0.39783E-05    52   0.301E-02
  48 F= -.11636848E+03 E0= -.11636848E+03  d E =0.124894E-02
       N       E                     dE             d eps       ncg     rms          rms(c)
DAV:   1    -0.116127090548E+03   -0.70086E-03   -0.12938E-01    76   0.177E+00    0.678E-02
RMM:   2    -0.116127219912E+03   -0.12936E-03   -0.20169E-03    70   0.213E-01    0.411E-02
RMM:   3    -0.116127262274E+03   -0.42362E-04   -0.27685E-04    67   0.887E-02    0.178E-02
RMM:   4    -0.116127274757E+03   -0.12482E-04   -0.61202E-05    55   0.409E-02    0.541E-03
RMM:   5    -0.116127276768E+03   -0.20119E-05   -0.17304E-05    50   0.185E-02
  49 F= -.11636937E+03 E0= -.11636937E+03  d E =-.881175E-03
       N       E                     dE             d eps       ncg     rms          rms(c)
DAV:   1    -0.116127540978E+03   -0.26622E-03   -0.14792E-02    76   0.592E-01    0.229E-02
RMM:   2    -0.116127555541E+03   -0.14563E-04   -0.24372E-04    62   0.739E-02    0.138E-02
RMM:   3    -0.116127560267E+03   -0.47260E-05   -0.35843E-05    53   0.312E-02
  50 F= -.11636966E+03 E0= -.11636966E+03  d E =-.289487E-03
       N       E                     dE             d eps       ncg     rms          rms(c)
DAV:   1    -0.116128179668E+03   -0.62413E-03   -0.11107E-01    70   0.163E+00    0.624E-02
RMM:   2    -0.116128290660E+03   -0.11099E-03   -0.17906E-03    70   0.201E-01    0.382E-02
RMM:   3    -0.116128326986E+03   -0.36326E-04   -0.25981E-04    64   0.852E-02    0.164E-02
RMM:   4    -0.116128337118E+03   -0.10132E-04   -0.63082E-05    56   0.397E-02    0.514E-03
RMM:   5    -0.116128339269E+03   -0.21512E-05   -0.15193E-05    50   0.182E-02
  51 F= -.11637044E+03 E0= -.11637044E+03  d E =-.784996E-03
       N       E                     dE             d eps       ncg     rms          rms(c)
DAV:   1    -0.116128591068E+03   -0.25395E-03   -0.13476E-02    76   0.564E-01    0.218E-02
RMM:   2    -0.116128604086E+03   -0.13018E-04   -0.22055E-04    62   0.702E-02    0.131E-02
RMM:   3    -0.116128609024E+03   -0.49380E-05   -0.32756E-05    53   0.298E-02
  52 F= -.11637071E+03 E0= -.11637071E+03  d E =-.271158E-03
       N       E                     dE             d eps       ncg     rms          rms(c)
DAV:   1    -0.116128976498E+03   -0.37241E-03   -0.35445E-02    70   0.918E-01    0.357E-02
RMM:   2    -0.116129012303E+03   -0.35805E-04   -0.58628E-04    70   0.115E-01    0.220E-02
RMM:   3    -0.116129024203E+03   -0.11900E-04   -0.86925E-05    57   0.489E-02    0.101E-02
RMM:   4    -0.116129028119E+03   -0.39154E-05   -0.21273E-05    52   0.228E-02
  53 F= -.11637114E+03 E0= -.11637114E+03  d E =-.429208E-03
       N       E                     dE             d eps       ncg     rms          rms(c)
DAV:   1    -0.116111180882E+03    0.17843E-01   -0.16664E+01    70   0.199E+01    0.816E-01
RMM:   2    -0.116132238445E+03   -0.21058E-01   -0.27678E-01    70   0.249E+00    0.462E-01
RMM:   3    -0.116135489869E+03   -0.32514E-02   -0.40415E-02    71   0.103E+00    0.247E-01
RMM:   4    -0.116136157913E+03   -0.66804E-03   -0.78382E-03    71   0.467E-01    0.814E-02
RMM:   5    -0.116136478110E+03   -0.32020E-03   -0.23031E-03    79   0.221E-01    0.416E-02
RMM:   6    -0.116136563212E+03   -0.85101E-04   -0.34788E-04    71   0.970E-02    0.973E-03
RMM:   7    -0.116136594774E+03   -0.31563E-04   -0.48413E-05    52   0.380E-02    0.964E-03
RMM:   8    -0.116136676388E+03   -0.81614E-04   -0.24928E-05    53   0.246E-02    0.901E-03
RMM:   9    -0.116136673887E+03    0.25007E-05   -0.58567E-06    46   0.121E-02
  54 F= -.11637887E+03 E0= -.11637887E+03  d E =-.773272E-02
       N       E                     dE             d eps       ncg     rms          rms(c)
DAV:   1    -0.116121638357E+03    0.15038E-01   -0.68717E+00    70   0.128E+01    0.528E-01
RMM:   2    -0.116130098717E+03   -0.84604E-02   -0.11207E-01    70   0.158E+00    0.296E-01
RMM:   3    -0.116131472542E+03   -0.13738E-02   -0.15830E-02    70   0.664E-01    0.146E-01
RMM:   4    -0.116131928188E+03   -0.45565E-03   -0.37765E-03    72   0.311E-01    0.499E-02
RMM:   5    -0.116132062413E+03   -0.13423E-03   -0.96837E-04    77   0.143E-01    0.216E-02
RMM:   6    -0.116132085023E+03   -0.22610E-04   -0.14192E-04    62   0.613E-02    0.851E-03
RMM:   7    -0.116132097649E+03   -0.12626E-04   -0.19325E-05    47   0.238E-02    0.568E-03
RMM:   8    -0.116132119138E+03   -0.21488E-04   -0.86247E-06    46   0.138E-02    0.174E-03
RMM:   9    -0.116132124542E+03   -0.54046E-05   -0.17306E-06    41   0.668E-03
  55 F= -.11637427E+03 E0= -.11637427E+03  d E =0.459952E-02
       N       E                     dE             d eps       ncg     rms          rms(c)
DAV:   1    -0.116132780162E+03   -0.66102E-03   -0.29336E-01    76   0.263E+00    0.100E-01
RMM:   2    -0.116133090649E+03   -0.31049E-03   -0.46307E-03    70   0.321E-01    0.608E-02
RMM:   3    -0.116133181095E+03   -0.90446E-04   -0.64722E-04    70   0.135E-01    0.260E-02
RMM:   4    -0.116133208281E+03   -0.27186E-04   -0.15388E-04    62   0.629E-02    0.798E-03
RMM:   5    -0.116133213631E+03   -0.53505E-05   -0.36202E-05    52   0.283E-02
  56 F= -.11637538E+03 E0= -.11637538E+03  d E =-.110178E-02
       N       E                     dE             d eps       ncg     rms          rms(c)
DAV:   1    -0.116133571469E+03   -0.36319E-03   -0.53613E-02    70   0.112E+00    0.428E-02
RMM:   2    -0.116133628037E+03   -0.56569E-04   -0.87219E-04    70   0.140E-01    0.258E-02
RMM:   3    -0.116133643901E+03   -0.15864E-04   -0.12725E-04    58   0.594E-02    0.112E-02
RMM:   4    -0.116133648383E+03   -0.44826E-05   -0.30218E-05    53   0.274E-02
  57 F= -.11637582E+03 E0= -.11637582E+03  d E =-.442269E-03
       N       E                     dE             d eps       ncg     rms          rms(c)
DAV:   1    -0.116133531169E+03    0.11273E-03   -0.38130E-03    76   0.301E-01    0.117E-02
RMM:   2    -0.116133535584E+03   -0.44148E-05   -0.56107E-05    53   0.358E-02
  58 F= -.11637570E+03 E0= -.11637570E+03  d E =0.114746E-03
       N       E                     dE             d eps       ncg     rms          rms(c)
DAV:   1    -0.116133694826E+03   -0.16366E-03   -0.82662E-03    73   0.436E-01    0.153E-02
RMM:   2    -0.116133704515E+03   -0.96890E-05   -0.12221E-04    58   0.526E-02    0.865E-03
RMM:   3    -0.116133707118E+03   -0.26028E-05   -0.17937E-05    48   0.214E-02
  59 F= -.11637588E+03 E0= -.11637588E+03  d E =-.175285E-03
       N       E                     dE             d eps       ncg     rms          rms(c)
DAV:   1    -0.116134278482E+03   -0.57397E-03   -0.35761E-01    70   0.291E+00    0.111E-01
RMM:   2    -0.116134653124E+03   -0.37464E-03   -0.56960E-03    70   0.357E-01    0.675E-02
RMM:   3    -0.116134756223E+03   -0.10310E-03   -0.80799E-04    70   0.150E-01    0.290E-02
RMM:   4    -0.116134784082E+03   -0.27859E-04   -0.19558E-04    63   0.706E-02    0.887E-03
RMM:   5    -0.116134790438E+03   -0.63558E-05   -0.49590E-05    56   0.319E-02
  60 F= -.11637698E+03 E0= -.11637698E+03  d E =-.110051E-02
       N       E                     dE             d eps       ncg     rms          rms(c)
DAV:   1    -0.116134356773E+03    0.42731E-03   -0.43168E-02    70   0.101E+00    0.402E-02
RMM:   2    -0.116134401098E+03   -0.44325E-04   -0.67436E-04    70   0.122E-01    0.242E-02
RMM:   3    -0.116134416750E+03   -0.15652E-04   -0.91943E-05    57   0.507E-02    0.109E-02
RMM:   4    -0.116134423273E+03   -0.65235E-05   -0.20644E-05    52   0.231E-02
  61 F= -.11637661E+03 E0= -.11637661E+03  d E =0.366797E-03
       N       E                     dE             d eps       ncg     rms          rms(c)
DAV:   1    -0.116134687915E+03   -0.27116E-03   -0.26580E-02    76   0.791E-01    0.303E-02
RMM:   2    -0.116134715265E+03   -0.27351E-04   -0.41139E-04    68   0.961E-02    0.179E-02
RMM:   3    -0.116134723056E+03   -0.77908E-05   -0.56839E-05    56   0.400E-02
  62 F= -.11637692E+03 E0= -.11637692E+03  d E =-.303878E-03
       N       E                     dE             d eps       ncg     rms          rms(c)
DAV:   1    -0.116135176281E+03   -0.46102E-03   -0.15593E-01    70   0.192E+00    0.732E-02
RMM:   2    -0.116135342467E+03   -0.16619E-03   -0.25247E-03    70   0.238E-01    0.451E-02
RMM:   3    -0.116135389372E+03   -0.46905E-04   -0.36409E-04    68   0.101E-01    0.194E-02
RMM:   4    -0.116135401352E+03   -0.11980E-04   -0.88955E-05    56   0.472E-02    0.620E-03
RMM:   5    -0.116135404115E+03   -0.27634E-05   -0.20834E-05    50   0.212E-02
  63 F= -.11637762E+03 E0= -.11637762E+03  d E =-.699772E-03
       N       E                     dE             d eps       ncg     rms          rms(c)
DAV:   1    -0.116135339667E+03    0.61684E-04   -0.34317E-03    73   0.299E-01    0.196E-02
RMM:   2    -0.116135340398E+03   -0.73017E-06   -0.72386E-05    58   0.410E-02
  64 F= -.11637754E+03 E0= -.11637754E+03  d E =0.746408E-04
       N       E                     dE             d eps       ncg     rms          rms(c)
DAV:   1    -0.116135469871E+03   -0.13020E-03   -0.62058E-03    73   0.382E-01    0.142E-02
RMM:   2    -0.116135478452E+03   -0.85810E-05   -0.99980E-05    58   0.475E-02
  65 F= -.11637769E+03 E0= -.11637769E+03  d E =-.145746E-03
       N       E                     dE             d eps       ncg     rms          rms(c)
DAV:   1    -0.116135609294E+03   -0.13942E-03   -0.62206E-03    70   0.389E-01    0.179E-02
RMM:   2    -0.116135614517E+03   -0.52228E-05   -0.11106E-04    58   0.497E-02    0.112E-02
RMM:   3    -0.116135617121E+03   -0.26047E-05   -0.16693E-05    48   0.214E-02
  66 F= -.11637783E+03 E0= -.11637783E+03  d E =-.140888E-03
       N       E                     dE             d eps       ncg     rms          rms(c)
DAV:   1    -0.116136082775E+03   -0.46826E-03   -0.44724E-01    70   0.325E+00    0.123E-01
RMM:   2    -0.116136561173E+03   -0.47840E-03   -0.71409E-03    70   0.400E-01    0.754E-02
RMM:   3    -0.116136685745E+03   -0.12457E-03   -0.10097E-03    70   0.168E-01    0.322E-02
RMM:   4    -0.116136720404E+03   -0.34659E-04   -0.24393E-04    67   0.787E-02    0.995E-03
RMM:   5    -0.116136728436E+03   -0.80317E-05   -0.61340E-05    56   0.359E-02
  67 F= -.11637897E+03 E0= -.11637897E+03  d E =-.114416E-02
       N       E                     dE             d eps       ncg     rms          rms(c)
DAV:   1    -0.116136267529E+03    0.45288E-03   -0.54211E-02    70   0.113E+00    0.438E-02
RMM:   2    -0.116136324789E+03   -0.57260E-04   -0.83821E-04    70   0.136E-01    0.264E-02
RMM:   3    -0.116136345920E+03   -0.21132E-04   -0.11384E-04    57   0.564E-02    0.113E-02
RMM:   4    -0.116136353418E+03   -0.74974E-05   -0.25291E-05    52   0.250E-02
  68 F= -.11637859E+03 E0= -.11637859E+03  d E =0.383548E-03
       N       E                     dE             d eps       ncg     rms          rms(c)
DAV:   1    -0.116136602916E+03   -0.25700E-03   -0.29789E-02    73   0.839E-01    0.323E-02
RMM:   2    -0.116136633730E+03   -0.30813E-04   -0.46327E-04    70   0.102E-01    0.192E-02
RMM:   3    -0.116136642543E+03   -0.88135E-05   -0.64047E-05    56   0.426E-02
  69 F= -.11637888E+03 E0= -.11637888E+03  d E =-.294861E-03
       N       E                     dE             d eps       ncg     rms          rms(c)
DAV:   1    -0.116136906349E+03   -0.27262E-03   -0.43926E-02    70   0.102E+00    0.396E-02
RMM:   2    -0.116136953698E+03   -0.47349E-04   -0.73093E-04    70   0.129E-01    0.246E-02
RMM:   3    -0.116136967319E+03   -0.13621E-04   -0.11474E-04    58   0.549E-02    0.114E-02
RMM:   4    -0.116136970417E+03   -0.30978E-05   -0.21994E-05    51   0.244E-02
  70 F= -.11637923E+03 E0= -.11637923E+03  d E =-.342703E-03
       N       E                     dE             d eps       ncg     rms          rms(c)
DAV:   1    -0.116137245663E+03   -0.27834E-03   -0.39668E-02    70   0.974E-01    0.375E-02
RMM:   2    -0.116137286309E+03   -0.40647E-04   -0.64743E-04    70   0.121E-01    0.231E-02
RMM:   3    -0.116137297341E+03   -0.11031E-04   -0.97795E-05    58   0.509E-02    0.106E-02
RMM:   4    -0.116137300261E+03   -0.29197E-05   -0.18702E-05    51   0.223E-02
  71 F= -.11637956E+03 E0= -.11637956E+03  d E =-.333942E-03
       N       E                     dE             d eps       ncg     rms          rms(c)
DAV:   1    -0.116137659459E+03   -0.36212E-03   -0.11185E-01    70   0.163E+00    0.619E-02
RMM:   2    -0.116137777690E+03   -0.11823E-03   -0.17963E-03    70   0.201E-01    0.379E-02
RMM:   3    -0.116137808871E+03   -0.31181E-04   -0.25493E-04    65   0.846E-02    0.164E-02
RMM:   4    -0.116137817729E+03   -0.88586E-05   -0.61497E-05    56   0.390E-02
  72 F= -.11638009E+03 E0= -.11638009E+03  d E =-.531286E-03
       N       E                     dE             d eps       ncg     rms          rms(c)
DAV:   1    -0.116137598728E+03    0.21014E-03   -0.16267E-02    70   0.623E-01    0.246E-02
RMM:   2    -0.116137616074E+03   -0.17346E-04   -0.25157E-04    63   0.757E-02    0.144E-02
RMM:   3    -0.116137622423E+03   -0.63485E-05   -0.34296E-05    52   0.311E-02
  73 F= -.11637990E+03 E0= -.11637990E+03  d E =0.196158E-03
       N       E                     dE             d eps       ncg     rms          rms(c)
DAV:   1    -0.116137670357E+03   -0.54283E-04   -0.78720E-04    73   0.137E-01    0.589E-03
RMM:   2    -0.116137671623E+03   -0.12655E-05   -0.11268E-05    46   0.158E-02
  74 F= -.11637994E+03 E0= -.11637994E+03  d E =-.491787E-04
       N       E                     dE             d eps       ncg     rms          rms(c)
DAV:   1    -0.116135291156E+03    0.23792E-02   -0.34496E+00    70   0.906E+00    0.346E-01
RMM:   2    -0.116139228308E+03   -0.39372E-02   -0.55104E-02    70   0.111E+00    0.210E-01
RMM:   3    -0.116139953129E+03   -0.72482E-03   -0.77104E-03    70   0.466E-01    0.929E-02
RMM:   4    -0.116140205937E+03   -0.25281E-03   -0.18644E-03    72   0.218E-01    0.285E-02
RMM:   5    -0.116140263896E+03   -0.57959E-04   -0.46655E-04    72   0.992E-02    0.142E-02
RMM:   6    -0.116140276633E+03   -0.12736E-04   -0.66938E-05    53   0.428E-02    0.398E-03
RMM:   7    -0.116140286408E+03   -0.97750E-05   -0.98422E-06    46   0.172E-02
  75 F= -.11638264E+03 E0= -.11638264E+03  d E =-.269562E-02
       N       E                     dE             d eps       ncg     rms          rms(c)
DAV:   1    -0.116139089589E+03    0.11870E-02   -0.31336E-01    70   0.273E+00    0.105E-01
RMM:   2    -0.116139428006E+03   -0.33842E-03   -0.49767E-03    70   0.335E-01    0.635E-02
RMM:   3    -0.116139530449E+03   -0.10244E-03   -0.69768E-04    70   0.140E-01    0.277E-02
RMM:   4    -0.116139564199E+03   -0.33750E-04   -0.16742E-04    62   0.657E-02    0.852E-03
RMM:   5    -0.116139572506E+03   -0.83070E-05   -0.38992E-05    53   0.291E-02
  76 F= -.11638191E+03 E0= -.11638191E+03  d E =0.729695E-03
       N       E                     dE             d eps       ncg     rms          rms(c)
DAV:   1    -0.116139889410E+03   -0.32521E-03   -0.11942E-01    76   0.168E+00    0.642E-02
RMM:   2    -0.116140013432E+03   -0.12402E-03   -0.18620E-03    70   0.205E-01    0.391E-02
RMM:   3    -0.116140048207E+03   -0.34775E-04   -0.25551E-04    65   0.850E-02    0.167E-02
RMM:   4    -0.116140057789E+03   -0.95825E-05   -0.59653E-05    56   0.388E-02
  77 F= -.11638241E+03 E0= -.11638241E+03  d E =-.498118E-03
       N       E                     dE             d eps       ncg     rms          rms(c)
DAV:   1    -0.116140315691E+03   -0.26748E-03   -0.83262E-02    73   0.141E+00    0.537E-02
RMM:   2    -0.116140403410E+03   -0.87719E-04   -0.13456E-03    70   0.175E-01    0.332E-02
RMM:   3    -0.116140426803E+03   -0.23393E-04   -0.19220E-04    61   0.736E-02    0.142E-02
RMM:   4    -0.116140433037E+03   -0.62338E-05   -0.45816E-05    55   0.334E-02
  78 F= -.11638280E+03 E0= -.11638280E+03  d E =-.390022E-03
       N       E                     dE             d eps       ncg     rms          rms(c)
DAV:   1    -0.116140404329E+03    0.22474E-04   -0.11803E-03    92   0.173E-01    0.103E-02
RMM:   2    -0.116140405175E+03   -0.84564E-06   -0.23331E-05    48   0.232E-02
  79 F= -.11638276E+03 E0= -.11638276E+03  d E =0.341697E-04
       N       E                     dE             d eps       ncg     rms          rms(c)
DAV:   1    -0.116140471653E+03   -0.67323E-04   -0.29904E-03    73   0.267E-01    0.960E-03
RMM:   2    -0.116140475901E+03   -0.42482E-05   -0.47840E-05    51   0.332E-02
  80 F= -.11638284E+03 E0= -.11638284E+03  d E =-.758537E-04
       N       E                     dE             d eps       ncg     rms          rms(c)
DAV:   1    -0.116140552472E+03   -0.80820E-04   -0.36549E-03    70   0.302E-01    0.136E-02
RMM:   2    -0.116140555648E+03   -0.31756E-05   -0.64274E-05    54   0.383E-02
  81 F= -.11638292E+03 E0= -.11638292E+03  d E =-.811882E-04
       N       E                     dE             d eps       ncg     rms          rms(c)
DAV:   1    -0.116140835567E+03   -0.28309E-03   -0.19836E-01    70   0.220E+00    0.849E-02
RMM:   2    -0.116141039480E+03   -0.20391E-03   -0.31752E-03    70   0.270E-01    0.522E-02
RMM:   3    -0.116141095250E+03   -0.55770E-04   -0.45301E-04    70   0.114E-01    0.217E-02
RMM:   4    -0.116141110847E+03   -0.15597E-04   -0.11003E-04    61   0.532E-02    0.715E-03
RMM:   5    -0.116141114420E+03   -0.35730E-05   -0.24745E-05    51   0.239E-02
  82 F= -.11638351E+03 E0= -.11638351E+03  d E =-.585525E-03
       N       E                     dE             d eps       ncg     rms          rms(c)
DAV:   1    -0.116140934728E+03    0.17612E-03   -0.17912E-02    70   0.659E-01    0.262E-02
RMM:   2    -0.116140953936E+03   -0.19208E-04   -0.27993E-04    67   0.797E-02    0.158E-02
RMM:   3    -0.116140960050E+03   -0.61141E-05   -0.37670E-05    52   0.327E-02
  83 F= -.11638334E+03 E0= -.11638334E+03  d E =0.166201E-03
       N       E                     dE             d eps       ncg     rms          rms(c)
DAV:   1    -0.116141088395E+03   -0.13446E-03   -0.12634E-02    73   0.552E-01    0.209E-02
RMM:   2    -0.116141102012E+03   -0.13617E-04   -0.19056E-04    63   0.658E-02    0.121E-02
RMM:   3    -0.116141105626E+03   -0.36138E-05   -0.24760E-05    52   0.267E-02
  84 F= -.11638349E+03 E0= -.11638349E+03  d E =-.151430E-03
       N       E                     dE             d eps       ncg     rms          rms(c)
DAV:   1    -0.116141269515E+03   -0.16750E-03   -0.27655E-02    70   0.823E-01    0.316E-02
RMM:   2    -0.116141298715E+03   -0.29201E-04   -0.45272E-04    70   0.103E-01    0.196E-02
RMM:   3    -0.116141307330E+03   -0.86150E-05   -0.70561E-05    57   0.436E-02
  85 F= -.11638371E+03 E0= -.11638371E+03  d E =-.213468E-03
       N       E                     dE             d eps       ncg     rms          rms(c)
DAV:   1    -0.116141540661E+03   -0.24195E-03   -0.81188E-02    70   0.141E+00    0.544E-02
RMM:   2    -0.116141623559E+03   -0.82898E-04   -0.13244E-03    70   0.176E-01    0.335E-02
RMM:   3    -0.116141647635E+03   -0.24076E-04   -0.20570E-04    64   0.749E-02    0.151E-02
RMM:   4    -0.116141653323E+03   -0.56882E-05   -0.41028E-05    53   0.338E-02
  86 F= -.11638406E+03 E0= -.11638406E+03  d E =-.352755E-03
       N       E                     dE             d eps       ncg     rms          rms(c)
DAV:   1    -0.116141578184E+03    0.69451E-04   -0.43055E-03    73   0.333E-01    0.173E-02
RMM:   2    -0.116141581162E+03   -0.29784E-05   -0.75660E-05    57   0.423E-02
  87 F= -.11638399E+03 E0= -.11638399E+03  d E =0.667888E-04
       N       E                     dE             d eps       ncg     rms          rms(c)
DAV:   1    -0.116141702147E+03   -0.12396E-03   -0.12704E-02    70   0.554E-01    0.185E-02
RMM:   2    -0.116141717312E+03   -0.15166E-04   -0.19034E-04    64   0.670E-02    0.109E-02
RMM:   3    -0.116141720898E+03   -0.35860E-05   -0.28329E-05    52   0.276E-02
  88 F= -.11638414E+03 E0= -.11638414E+03  d E =-.144441E-03
       N       E                     dE             d eps       ncg     rms          rms(c)
DAV:   1    -0.116141774277E+03   -0.56964E-04   -0.17092E-03    73   0.211E-01    0.988E-03
RMM:   2    -0.116141775741E+03   -0.14644E-05   -0.32928E-05    52   0.282E-02
  89 F= -.11638419E+03 E0= -.11638419E+03  d E =-.526983E-04
       N       E                     dE             d eps       ncg     rms          rms(c)
DAV:   1    -0.116141909955E+03   -0.13568E-03   -0.19963E-02    70   0.702E-01    0.285E-02
RMM:   2    -0.116141929676E+03   -0.19722E-04   -0.33076E-04    68   0.873E-02    0.177E-02
RMM:   3    -0.116141935478E+03   -0.58015E-05   -0.47558E-05    53   0.369E-02
  90 F= -.11638436E+03 E0= -.11638436E+03  d E =-.170225E-03
       N       E                     dE             d eps       ncg     rms          rms(c)
DAV:   1    -0.116141922527E+03    0.71497E-05   -0.81117E-04    73   0.147E-01    0.104E-02
RMM:   2    -0.116141922491E+03    0.35779E-07   -0.17194E-05    48   0.201E-02
  91 F= -.11638434E+03 E0= -.11638434E+03  d E =0.189584E-04
       N       E                     dE             d eps       ncg     rms          rms(c)
DAV:   1    -0.116134965586E+03    0.69569E-02   -0.65624E+00    70   0.127E+01    0.487E-01
RMM:   2    -0.116142650707E+03   -0.76851E-02   -0.10492E-01    70   0.156E+00    0.291E-01
RMM:   3    -0.116143987126E+03   -0.13364E-02   -0.15511E-02    71   0.653E-01    0.134E-01
RMM:   4    -0.116144349161E+03   -0.36204E-03   -0.29439E-03    70   0.293E-01    0.405E-02
RMM:   5    -0.116144458710E+03   -0.10955E-03   -0.87854E-04    79   0.139E-01    0.209E-02
RMM:   6    -0.116144485429E+03   -0.26719E-04   -0.12668E-04    61   0.594E-02    0.533E-03
RMM:   7    -0.116144499942E+03   -0.14514E-04   -0.17531E-05    48   0.233E-02    0.427E-03
RMM:   8    -0.116144529920E+03   -0.29977E-04   -0.85543E-06    46   0.140E-02    0.180E-03
RMM:   9    -0.116144534290E+03   -0.43697E-05   -0.16163E-06    42   0.648E-03
  92 F= -.11638707E+03 E0= -.11638707E+03  d E =-.273014E-02
       N       E                     dE             d eps       ncg     rms          rms(c)
DAV:   1    -0.116132966794E+03    0.11563E-01   -0.60597E+00    70   0.122E+01    0.494E-01
RMM:   2    -0.116140249197E+03   -0.72824E-02   -0.98197E-02    70   0.151E+00    0.281E-01
RMM:   3    -0.116141495325E+03   -0.12461E-02   -0.14655E-02    71   0.634E-01    0.139E-01
RMM:   4    -0.116141835288E+03   -0.33996E-03   -0.27733E-03    70   0.285E-01    0.458E-02
RMM:   5    -0.116141946842E+03   -0.11155E-03   -0.83029E-04    77   0.136E-01    0.205E-02
RMM:   6    -0.116141971953E+03   -0.25111E-04   -0.12696E-04    62   0.592E-02    0.654E-03
RMM:   7    -0.116141984634E+03   -0.12681E-04   -0.17481E-05    47   0.232E-02    0.535E-03
RMM:   8    -0.116142009274E+03   -0.24639E-04   -0.84061E-06    46   0.135E-02    0.254E-03
RMM:   9    -0.116142011207E+03   -0.19338E-05   -0.15524E-06    44   0.654E-03
  93 F= -.11638443E+03 E0= -.11638443E+03  d E =0.263573E-02
       N       E                     dE             d eps       ncg     rms          rms(c)
DAV:   1    -0.116142099442E+03   -0.90168E-04   -0.48162E-03    84   0.343E-01    0.134E-02
RMM:   2    -0.116142107015E+03   -0.75731E-05   -0.77900E-05    56   0.423E-02
  94 F= -.11638454E+03 E0= -.11638454E+03  d E =-.102665E-03
       N       E                     dE             d eps       ncg     rms          rms(c)
DAV:   1    -0.116142186270E+03   -0.86828E-04   -0.46573E-03    76   0.347E-01    0.169E-02
RMM:   2    -0.116142191270E+03   -0.50004E-05   -0.86559E-05    57   0.450E-02
  95 F= -.11638462E+03 E0= -.11638462E+03  d E =-.823649E-04
       N       E                     dE             d eps       ncg     rms          rms(c)
DAV:   1    -0.116141192768E+03    0.99350E-03   -0.16967E+00    70   0.647E+00    0.247E-01
RMM:   2    -0.116143036372E+03   -0.18436E-02   -0.26846E-02    70   0.792E-01    0.151E-01
RMM:   3    -0.116143436695E+03   -0.40032E-03   -0.38086E-03    70   0.333E-01    0.625E-02
RMM:   4    -0.116143564445E+03   -0.12775E-03   -0.91597E-04    72   0.155E-01    0.197E-02
RMM:   5    -0.116143591928E+03   -0.27483E-04   -0.22481E-04    65   0.705E-02    0.769E-03
RMM:   6    -0.116143597207E+03   -0.52796E-05   -0.34575E-05    51   0.307E-02
  96 F= -.11638609E+03 E0= -.11638609E+03  d E =-.146897E-02
       N       E                     dE             d eps       ncg     rms          rms(c)
DAV:   1    -0.116143446893E+03    0.14503E-03   -0.16562E-02    76   0.638E-01    0.242E-02
RMM:   2    -0.116143468418E+03   -0.21525E-04   -0.25433E-04    66   0.770E-02    0.147E-02
RMM:   3    -0.116143478455E+03   -0.10037E-04   -0.36441E-05    52   0.318E-02    0.626E-03
RMM:   4    -0.116143483891E+03   -0.54361E-05   -0.67113E-06    45   0.137E-02
  97 F= -.11638597E+03 E0= -.11638597E+03  d E =0.118307E-03
       N       E                     dE             d eps       ncg     rms          rms(c)
DAV:   1    -0.116143587555E+03   -0.10910E-03   -0.13008E-02    70   0.567E-01    0.214E-02
RMM:   2    -0.116143601654E+03   -0.14099E-04   -0.20148E-04    64   0.689E-02    0.129E-02
RMM:   3    -0.116143606322E+03   -0.46684E-05   -0.28444E-05    52   0.286E-02
  98 F= -.11638610E+03 E0= -.11638610E+03  d E =-.126946E-03
       N       E                     dE             d eps       ncg     rms          rms(c)
DAV:   1    -0.116143751508E+03   -0.14985E-03   -0.41578E-02    70   0.102E+00    0.386E-02
RMM:   2    -0.116143795455E+03   -0.43947E-04   -0.67161E-04    70   0.126E-01    0.239E-02
RMM:   3    -0.116143808578E+03   -0.13123E-04   -0.10484E-04    59   0.537E-02    0.102E-02
RMM:   4    -0.116143811735E+03   -0.31570E-05   -0.19521E-05    51   0.234E-02
  99 F= -.11638631E+03 E0= -.11638631E+03  d E =-.216766E-03
       N       E                     dE             d eps       ncg     rms          rms(c)
DAV:   1    -0.116143718870E+03    0.89709E-04   -0.79531E-03    70   0.444E-01    0.174E-02
RMM:   2    -0.116143727472E+03   -0.86023E-05   -0.12245E-04    58   0.539E-02    0.103E-02
RMM:   3    -0.116143730515E+03   -0.30428E-05   -0.16823E-05    48   0.219E-02
 100 F= -.11638623E+03 E0= -.11638623E+03  d E =0.881890E-04
       N       E                     dE             d eps       ncg     rms          rms(c)
DAV:   1    -0.116143808246E+03   -0.80774E-04   -0.70968E-03    76   0.419E-01    0.157E-02
RMM:   2    -0.116143815917E+03   -0.76711E-05   -0.10711E-04    58   0.499E-02    0.924E-03
RMM:   3    -0.116143817909E+03   -0.19918E-05   -0.14298E-05    47   0.201E-02
 101 F= -.11638632E+03 E0= -.11638632E+03  d E =-.909976E-04
       N       E                     dE             d eps       ncg     rms          rms(c)
DAV:   1    -0.116143978414E+03   -0.16250E-03   -0.16394E-01    70   0.203E+00    0.767E-02
RMM:   2    -0.116144147900E+03   -0.16949E-03   -0.25925E-03    70   0.249E-01    0.470E-02
RMM:   3    -0.116144192595E+03   -0.44695E-04   -0.37300E-04    70   0.105E-01    0.196E-02
RMM:   4    -0.116144204927E+03   -0.12331E-04   -0.90539E-05    59   0.489E-02    0.636E-03
RMM:   5    -0.116144207326E+03   -0.23998E-05   -0.20050E-05    50   0.217E-02
 102 F= -.11638673E+03 E0= -.11638673E+03  d E =-.411959E-03
       N       E                     dE             d eps       ncg     rms          rms(c)
DAV:   1    -0.116143644353E+03    0.56057E-03   -0.14025E-01    70   0.188E+00    0.711E-02
RMM:   2    -0.116143792999E+03   -0.14865E-03   -0.21755E-03    70   0.227E-01    0.431E-02
RMM:   3    -0.116143832406E+03   -0.39407E-04   -0.30380E-04    70   0.948E-02    0.181E-02
RMM:   4    -0.116143844782E+03   -0.12376E-04   -0.71067E-05    57   0.437E-02    0.591E-03
RMM:   5    -0.116143847387E+03   -0.26042E-05   -0.15566E-05    50   0.190E-02
 103 F= -.11638635E+03 E0= -.11638635E+03  d E =0.378087E-03
       N       E                     dE             d eps       ncg     rms          rms(c)
DAV:   1    -0.116143883491E+03   -0.38708E-04   -0.13121E-03    84   0.185E-01    0.950E-03
RMM:   2    -0.116143884257E+03   -0.76671E-06   -0.22708E-05    48   0.229E-02
 104 F= -.11638638E+03 E0= -.11638638E+03  d E =-.344777E-04
       N       E                     dE             d eps       ncg     rms          rms(c)
DAV:   1    -0.116143903482E+03   -0.19991E-04   -0.69882E-04    73   0.137E-01    0.832E-03
RMM:   2    -0.116143904237E+03   -0.75594E-06   -0.15716E-05    46   0.193E-02
 105 F= -.11638641E+03 E0= -.11638641E+03  d E =-.248479E-04
       N       E                     dE             d eps       ncg     rms          rms(c)
DAV:   1    -0.116143901414E+03    0.20677E-05   -0.12075E-05    76   0.184E-02    0.232E-03
RMM:   2    -0.116143901538E+03   -0.12363E-06   -0.31070E-07    19   0.419E-03
 106 F= -.11638641E+03 E0= -.11638641E+03  d E =0.277807E-05
       N       E                     dE             d eps       ncg     rms          rms(c)
DAV:   1    -0.116143941871E+03   -0.40457E-04   -0.20856E-03    76   0.244E-01    0.140E-02
RMM:   2    -0.116143942364E+03   -0.49335E-06   -0.41069E-05    53   0.322E-02
 107 F= -.11638644E+03 E0= -.11638644E+03  d E =-.342500E-04
       N       E                     dE             d eps       ncg     rms          rms(c)
DAV:   1    -0.116143977626E+03   -0.35755E-04   -0.98729E-04    73   0.171E-01    0.100E-02
RMM:   2    -0.116143978574E+03   -0.94747E-06   -0.21193E-05    48   0.232E-02
 108 F= -.11638648E+03 E0= -.11638648E+03  d E =-.389256E-04
       N       E                     dE             d eps       ncg     rms          rms(c)
DAV:   1    -0.116144070764E+03   -0.93138E-04   -0.91351E-03    70   0.516E-01    0.227E-02
RMM:   2    -0.116144077434E+03   -0.66700E-05   -0.13587E-04    66   0.611E-02    0.139E-02
RMM:   3    -0.116144080346E+03   -0.29117E-05   -0.22089E-05    49   0.266E-02
 109 F= -.11638658E+03 E0= -.11638658E+03  d E =-.976933E-04
       N       E                     dE             d eps       ncg     rms          rms(c)
DAV:   1    -0.116132387773E+03    0.11690E-01   -0.57140E+00    70   0.129E+01    0.533E-01
RMM:   2    -0.116137932001E+03   -0.55442E-02   -0.83890E-02    70   0.153E+00    0.312E-01
RMM:   3    -0.116138832964E+03   -0.90096E-03   -0.12675E-02    70   0.645E-01    0.132E-01
RMM:   4    -0.116139215658E+03   -0.38269E-03   -0.29966E-03    71   0.303E-01    0.534E-02
RMM:   5    -0.116139310411E+03   -0.94753E-04   -0.78863E-04    78   0.142E-01    0.264E-02
RMM:   6    -0.116139334466E+03   -0.24055E-04   -0.12418E-04    67   0.625E-02    0.811E-03
RMM:   7    -0.116139344827E+03   -0.10361E-04   -0.20549E-05    49   0.264E-02    0.670E-03
RMM:   8    -0.116139364070E+03   -0.19242E-04   -0.89288E-06    46   0.154E-02    0.481E-03
RMM:   9    -0.116139364156E+03   -0.86423E-07   -0.17632E-06    45   0.742E-03
 110 F= -.11638188E+03 E0= -.11638188E+03  d E =0.469869E-02
       N       E                     dE             d eps       ncg     rms          rms(c)
DAV:   1    -0.116139467386E+03   -0.10332E-03   -0.22745E-01    73   0.251E+00    0.213E-01
RMM:   2    -0.116139232936E+03    0.23445E-03   -0.59192E-03    70   0.380E-01    0.108E-01
RMM:   3    -0.116139108069E+03    0.12487E-03   -0.90019E-04    70   0.164E-01    0.573E-02
RMM:   4    -0.116139113018E+03   -0.49495E-05   -0.52303E-04    69   0.105E-01    0.212E-02
RMM:   5    -0.116139117846E+03   -0.48276E-05   -0.51012E-05    56   0.399E-02
 111 F= -.11638174E+03 E0= -.11638174E+03  d E =0.139885E-03
       N       E                     dE             d eps       ncg     rms          rms(c)
DAV:   1    -0.116141055138E+03   -0.19421E-02   -0.66807E-02    73   0.134E+00    0.127E-01
RMM:   2    -0.116140936866E+03    0.11827E-03   -0.17854E-03    70   0.202E-01    0.625E-02
RMM:   3    -0.116140892702E+03    0.44164E-04   -0.25797E-04    67   0.858E-02    0.332E-02
RMM:   4    -0.116140893819E+03   -0.11168E-05   -0.15721E-04    66   0.563E-02    0.129E-02
RMM:   5    -0.116140895681E+03   -0.18618E-05   -0.14648E-05    46   0.206E-02
 112 F= -.11638345E+03 E0= -.11638345E+03  d E =-.171062E-02
       N       E                     dE             d eps       ncg     rms          rms(c)
DAV:   1    -0.116140993258E+03   -0.99439E-04   -0.35473E-03    78   0.323E-01    0.155E-02
RMM:   2    -0.116140996074E+03   -0.28161E-05   -0.64119E-05    57   0.410E-02
 113 F= -.11638356E+03 E0= -.11638356E+03  d E =-.106968E-03
       N       E                     dE             d eps       ncg     rms          rms(c)
DAV:   1    -0.116141126891E+03   -0.13363E-03   -0.10980E-02    73   0.564E-01    0.274E-02
RMM:   2    -0.116141132979E+03   -0.60885E-05   -0.20413E-04    67   0.718E-02    0.161E-02
RMM:   3    -0.116141134279E+03   -0.12998E-05   -0.30091E-05    52   0.298E-02
 114 F= -.11638368E+03 E0= -.11638368E+03  d E =-.124969E-03
       N       E                     dE             d eps       ncg     rms          rms(c)
DAV:   1    -0.116141308051E+03   -0.17507E-03   -0.15310E-02    70   0.651E-01    0.273E-02
RMM:   2    -0.116141320495E+03   -0.12444E-04   -0.25558E-04    69   0.805E-02    0.165E-02
RMM:   3    -0.116141323618E+03   -0.31228E-05   -0.39540E-05    54   0.340E-02
 115 F= -.11638388E+03 E0= -.11638388E+03  d E =-.197441E-03
       N       E                     dE             d eps       ncg     rms          rms(c)
DAV:   1    -0.116141440862E+03   -0.12037E-03   -0.12113E-02    70   0.565E-01    0.218E-02
RMM:   2    -0.116141452826E+03   -0.11964E-04   -0.19287E-04    65   0.696E-02    0.139E-02
RMM:   3    -0.116141456819E+03   -0.39932E-05   -0.31547E-05    52   0.297E-02
 116 F= -.11638401E+03 E0= -.11638401E+03  d E =-.135765E-03
       N       E                     dE             d eps       ncg     rms          rms(c)
DAV:   1    -0.116141534345E+03   -0.81519E-04   -0.53154E-03    76   0.377E-01    0.194E-02
RMM:   2    -0.116141537488E+03   -0.31429E-05   -0.10620E-04    59   0.510E-02    0.112E-02
RMM:   3    -0.116141537913E+03   -0.42520E-06   -0.16921E-05    50   0.217E-02
 117 F= -.11638409E+03 E0= -.11638409E+03  d E =-.722156E-04
       N       E                     dE             d eps       ncg     rms          rms(c)
DAV:   1    -0.116141651618E+03   -0.11413E-03   -0.97303E-03    70   0.501E-01    0.205E-02
RMM:   2    -0.116141661027E+03   -0.94091E-05   -0.16219E-04    62   0.633E-02    0.126E-02
RMM:   3    -0.116141663599E+03   -0.25716E-05   -0.24687E-05    52   0.267E-02
 118 F= -.11638422E+03 E0= -.11638422E+03  d E =-.130708E-03
       N       E                     dE             d eps       ncg     rms          rms(c)
DAV:   1    -0.116141765173E+03   -0.10415E-03   -0.94030E-03    70   0.488E-01    0.189E-02
RMM:   2    -0.116141775072E+03   -0.98988E-05   -0.15300E-04    62   0.609E-02    0.119E-02
RMM:   3    -0.116141778235E+03   -0.31629E-05   -0.24745E-05    52   0.260E-02
 119 F= -.11638433E+03 E0= -.11638433E+03  d E =-.116080E-03
       N       E                     dE             d eps       ncg     rms          rms(c)
DAV:   1    -0.116141853375E+03   -0.78303E-04   -0.43051E-03    76   0.332E-01    0.136E-02
RMM:   2    -0.116141857854E+03   -0.44787E-05   -0.75859E-05    56   0.428E-02
 120 F= -.11638441E+03 E0= -.11638441E+03  d E =-.761476E-04
       N       E                     dE             d eps       ncg     rms          rms(c)
DAV:   1    -0.116142008370E+03   -0.15499E-03   -0.24540E-02    70   0.791E-01    0.327E-02
RMM:   2    -0.116142031276E+03   -0.22906E-04   -0.40205E-04    70   0.980E-02    0.205E-02
RMM:   3    -0.116142038885E+03   -0.76090E-05   -0.59315E-05    56   0.418E-02
 121 F= -.11638459E+03 E0= -.11638459E+03  d E =-.182674E-03
       N       E                     dE             d eps       ncg     rms          rms(c)
DAV:   1    -0.116142129158E+03   -0.97882E-04   -0.68182E-03    70   0.418E-01    0.170E-02
RMM:   2    -0.116142136547E+03   -0.73888E-05   -0.12232E-04    60   0.544E-02    0.108E-02
RMM:   3    -0.116142138887E+03   -0.23405E-05   -0.20525E-05    52   0.233E-02
 122 F= -.11638469E+03 E0= -.11638469E+03  d E =-.963463E-04
       N       E                     dE             d eps       ncg     rms          rms(c)
DAV:   1    -0.116142261321E+03   -0.12477E-03   -0.16056E-02    70   0.640E-01    0.246E-02
RMM:   2    -0.116142277950E+03   -0.16629E-04   -0.26127E-04    68   0.797E-02    0.153E-02
RMM:   3    -0.116142282756E+03   -0.48060E-05   -0.39584E-05    53   0.339E-02
 123 F= -.11638484E+03 E0= -.11638484E+03  d E =-.146920E-03
       N       E                     dE             d eps       ncg     rms          rms(c)
DAV:   1    -0.116142464567E+03   -0.18662E-03   -0.48007E-02    70   0.111E+00    0.420E-02
RMM:   2    -0.116142514704E+03   -0.50137E-04   -0.77127E-04    70   0.137E-01    0.261E-02
RMM:   3    -0.116142529504E+03   -0.14800E-04   -0.12145E-04    60   0.584E-02    0.105E-02
RMM:   4    -0.116142532907E+03   -0.34029E-05   -0.22907E-05    51   0.256E-02
 124 F= -.11638509E+03 E0= -.11638509E+03  d E =-.249878E-03
       N       E                     dE             d eps       ncg     rms          rms(c)
DAV:   1    -0.116142569020E+03   -0.39516E-04   -0.85363E-04    76   0.155E-01    0.865E-03
RMM:   2    -0.116142569829E+03   -0.80972E-06   -0.19132E-05    49   0.218E-02
 125 F= -.11638512E+03 E0= -.11638512E+03  d E =-.332367E-04
       N       E                     dE             d eps       ncg     rms          rms(c)
DAV:   1    -0.116142590876E+03   -0.21857E-04   -0.38928E-04    73   0.103E-01    0.596E-03
RMM:   2    -0.116142591722E+03   -0.84551E-06   -0.92022E-06    45   0.149E-02
 126 F= -.11638514E+03 E0= -.11638514E+03  d E =-.239762E-04
       N       E                     dE             d eps       ncg     rms          rms(c)
DAV:   1    -0.116142623385E+03   -0.32508E-04   -0.65710E-04    76   0.132E-01    0.614E-03
RMM:   2    -0.116142624240E+03   -0.85595E-06   -0.11271E-05    45   0.165E-02
 127 F= -.11638518E+03 E0= -.11638518E+03  d E =-.325736E-04
       N       E                     dE             d eps       ncg     rms          rms(c)
DAV:   1    -0.116142826570E+03   -0.20319E-03   -0.55981E-02    70   0.121E+00    0.465E-02
RMM:   2    -0.116142881257E+03   -0.54687E-04   -0.88244E-04    70   0.147E-01    0.284E-02
RMM:   3    -0.116142896146E+03   -0.14889E-04   -0.12864E-04    61   0.622E-02    0.120E-02
RMM:   4    -0.116142900354E+03   -0.42088E-05   -0.30144E-05    53   0.286E-02
 128 F= -.11638545E+03 E0= -.11638545E+03  d E =-.272272E-03
       N       E                     dE             d eps       ncg     rms          rms(c)
DAV:   1    -0.116142954635E+03   -0.58489E-04   -0.63006E-03    70   0.415E-01    0.243E-02
RMM:   2    -0.116142957958E+03   -0.33233E-05   -0.13216E-04    60   0.567E-02    0.135E-02
RMM:   3    -0.116142957947E+03    0.11242E-07   -0.20070E-05    49   0.240E-02
 129 F= -.11638552E+03 E0= -.11638552E+03  d E =-.688610E-04
       N       E                     dE             d eps       ncg     rms          rms(c)
DAV:   1    -0.116143213655E+03   -0.25570E-03   -0.14713E-01    70   0.196E+00    0.745E-02
RMM:   2    -0.116143360376E+03   -0.14672E-03   -0.23067E-03    70   0.238E-01    0.453E-02
RMM:   3    -0.116143399413E+03   -0.39038E-04   -0.33652E-04    70   0.100E-01    0.190E-02
RMM:   4    -0.116143410728E+03   -0.11315E-04   -0.82017E-05    59   0.470E-02    0.642E-03
RMM:   5    -0.116143413349E+03   -0.26210E-05   -0.18142E-05    50   0.207E-02
 130 F= -.11638597E+03 E0= -.11638597E+03  d E =-.451290E-03
       N       E                     dE             d eps       ncg     rms          rms(c)
DAV:   1    -0.116143468646E+03   -0.57917E-04   -0.28113E-03    73   0.270E-01    0.104E-02
RMM:   2    -0.116143472237E+03   -0.35917E-05   -0.48130E-05    53   0.345E-02
 131 F= -.11638603E+03 E0= -.11638603E+03  d E =-.586178E-04
       N       E                     dE             d eps       ncg     rms          rms(c)
DAV:   1    -0.116143503447E+03   -0.34802E-04   -0.91792E-04    73   0.157E-01    0.813E-03
RMM:   2    -0.116143504700E+03   -0.12531E-05   -0.18112E-05    47   0.208E-02
 132 F= -.11638606E+03 E0= -.11638606E+03  d E =-.338130E-04
       N       E                     dE             d eps       ncg     rms          rms(c)
DAV:   1    -0.116143693648E+03   -0.19020E-03   -0.14879E-01    70   0.196E+00    0.747E-02
RMM:   2    -0.116143843391E+03   -0.14974E-03   -0.23296E-03    70   0.238E-01    0.457E-02
RMM:   3    -0.116143884613E+03   -0.41222E-04   -0.33732E-04    70   0.101E-01    0.182E-02
RMM:   4    -0.116143896132E+03   -0.11520E-04   -0.81298E-05    59   0.469E-02    0.602E-03
RMM:   5    -0.116143899093E+03   -0.29604E-05   -0.18399E-05    50   0.209E-02
 133 F= -.11638646E+03 E0= -.11638646E+03  d E =-.401564E-03
       N       E                     dE             d eps       ncg     rms          rms(c)
DAV:   1    -0.116144047419E+03   -0.15129E-03   -0.42245E-02    70   0.105E+00    0.400E-02
RMM:   2    -0.116144090172E+03   -0.42754E-04   -0.67725E-04    70   0.129E-01    0.242E-02
RMM:   3    -0.116144101685E+03   -0.11513E-04   -0.10104E-04    59   0.549E-02    0.104E-02
RMM:   4    -0.116144105602E+03   -0.39165E-05   -0.24341E-05    52   0.254E-02
 134 F= -.11638667E+03 E0= -.11638667E+03  d E =-.204749E-03
       N       E                     dE             d eps       ncg     rms          rms(c)
DAV:   1    -0.116144009245E+03    0.92440E-04   -0.82036E-03    70   0.460E-01    0.181E-02
RMM:   2    -0.116144018391E+03   -0.91456E-05   -0.12463E-04    60   0.553E-02    0.106E-02
RMM:   3    -0.116144021657E+03   -0.32665E-05   -0.17529E-05    48   0.226E-02
 135 F= -.11638659E+03 E0= -.11638659E+03  d E =0.812694E-04
       N       E                     dE             d eps       ncg     rms          rms(c)
DAV:   1    -0.116144076700E+03   -0.58310E-04   -0.35130E-03    73   0.299E-01    0.111E-02
RMM:   2    -0.116144080737E+03   -0.40368E-05   -0.52002E-05    53   0.352E-02
 136 F= -.11638665E+03 E0= -.11638665E+03  d E =-.607728E-04
       N       E                     dE             d eps       ncg     rms          rms(c)
DAV:   1    -0.116144224451E+03   -0.14775E-03   -0.35596E-02    70   0.970E-01    0.386E-02
RMM:   2    -0.116144257879E+03   -0.33428E-04   -0.56809E-04    70   0.118E-01    0.238E-02
RMM:   3    -0.116144268124E+03   -0.10245E-04   -0.83876E-05    58   0.505E-02    0.907E-03
RMM:   4    -0.116144270944E+03   -0.28196E-05   -0.19199E-05    51   0.229E-02
 137 F= -.11638684E+03 E0= -.11638684E+03  d E =-.190216E-03
       N       E                     dE             d eps       ncg     rms          rms(c)
DAV:   1    -0.116144221258E+03    0.46866E-04   -0.24056E-03    73   0.253E-01    0.107E-02
RMM:   2    -0.116144224030E+03   -0.27717E-05   -0.37350E-05    51   0.306E-02
 138 F= -.11638679E+03 E0= -.11638679E+03  d E =0.451981E-04
       N       E                     dE             d eps       ncg     rms          rms(c)
DAV:   1    -0.116144275581E+03   -0.54322E-04   -0.31856E-03    73   0.286E-01    0.933E-03
RMM:   2    -0.116144279544E+03   -0.39638E-05   -0.45491E-05    53   0.340E-02
 139 F= -.11638685E+03 E0= -.11638685E+03  d E =-.569055E-04
       N       E                     dE             d eps       ncg     rms          rms(c)
DAV:   1    -0.116144389362E+03   -0.11378E-03   -0.16020E-02    70   0.657E-01    0.270E-02
RMM:   2    -0.116144403377E+03   -0.14016E-04   -0.25940E-04    69   0.805E-02    0.167E-02
RMM:   3    -0.116144407675E+03   -0.42971E-05   -0.38749E-05    53   0.343E-02
 140 F= -.11638697E+03 E0= -.11638697E+03  d E =-.126087E-03
       N       E                     dE             d eps       ncg     rms          rms(c)
DAV:   1    -0.116144571190E+03   -0.16781E-03   -0.71397E-02    70   0.138E+00    0.523E-02
RMM:   2    -0.116144642933E+03   -0.71744E-04   -0.11217E-03    70   0.168E-01    0.324E-02
RMM:   3    -0.116144662457E+03   -0.19524E-04   -0.16796E-04    65   0.716E-02    0.127E-02
RMM:   4    -0.116144667827E+03   -0.53694E-05   -0.41095E-05    55   0.330E-02
 141 F= -.11638724E+03 E0= -.11638724E+03  d E =-.266264E-03
       N       E                     dE             d eps       ncg     rms          rms(c)
DAV:   1    -0.116144717513E+03   -0.55056E-04   -0.26751E-03    73   0.270E-01    0.105E-02
RMM:   2    -0.116144720407E+03   -0.28939E-05   -0.46355E-05    53   0.342E-02
 142 F= -.11638729E+03 E0= -.11638729E+03  d E =-.518045E-04
       N       E                     dE             d eps       ncg     rms          rms(c)
DAV:   1    -0.116144719006E+03   -0.14923E-05   -0.62994E-05    81   0.418E-02    0.402E-03
RMM:   2    -0.116144719521E+03   -0.51571E-06   -0.21932E-06    35   0.780E-03
 143 F= -.11638729E+03 E0= -.11638729E+03  d E =-.100439E-05
       N       E                     dE             d eps       ncg     rms          rms(c)
DAV:   1    -0.116144741234E+03   -0.22229E-04   -0.52485E-04    73   0.118E-01    0.490E-03
RMM:   2    -0.116144742043E+03   -0.80811E-06   -0.82437E-06    41   0.143E-02
 144 F= -.11638732E+03 E0= -.11638732E+03  d E =-.234868E-04
       N       E                     dE             d eps       ncg     rms          rms(c)
DAV:   1    -0.116144899408E+03   -0.15817E-03   -0.51704E-02    70   0.118E+00    0.454E-02
RMM:   2    -0.116144948637E+03   -0.49230E-04   -0.79366E-04    70   0.142E-01    0.279E-02
RMM:   3    -0.116144962051E+03   -0.13413E-04   -0.11660E-04    62   0.600E-02    0.105E-02
RMM:   4    -0.116144965868E+03   -0.38169E-05   -0.26696E-05    52   0.272E-02
 145 F= -.11638754E+03 E0= -.11638754E+03  d E =-.225781E-03
       N       E                     dE             d eps       ncg     rms          rms(c)
DAV:   1    -0.116144838730E+03    0.12332E-03   -0.12836E-02    70   0.588E-01    0.228E-02
RMM:   2    -0.116144851446E+03   -0.12716E-04   -0.18978E-04    68   0.697E-02    0.136E-02
RMM:   3    -0.116144855324E+03   -0.38778E-05   -0.26867E-05    51   0.289E-02
 146 F= -.11638743E+03 E0= -.11638743E+03  d E =0.115042E-03
       N       E                     dE             d eps       ncg     rms          rms(c)
DAV:   1    -0.116144837606E+03    0.13840E-04   -0.39415E-04    76   0.101E-01    0.484E-03
RMM:   2    -0.116144838533E+03   -0.92629E-06   -0.79899E-06    45   0.139E-02
 147 F= -.11638741E+03 E0= -.11638741E+03  d E =0.184212E-04
       N       E                     dE             d eps       ncg     rms          rms(c)
DAV:   1    -0.116144856023E+03   -0.18417E-04   -0.26205E-03    70   0.267E-01    0.187E-02
RMM:   2    -0.116144855952E+03    0.70806E-07   -0.60241E-05    57   0.379E-02
 148 F= -.11638744E+03 E0= -.11638744E+03  d E =-.289655E-04
       N       E                     dE             d eps       ncg     rms          rms(c)
DAV:   1    -0.116144716752E+03    0.13927E-03   -0.13331E-02    73   0.589E-01    0.372E-02
RMM:   2    -0.116144722782E+03   -0.60307E-05   -0.29572E-04    66   0.831E-02    0.186E-02
RMM:   3    -0.116144721063E+03    0.17195E-05   -0.40506E-05    55   0.347E-02
 149 F= -.11638728E+03 E0= -.11638728E+03  d E =0.159950E-03
       N       E                     dE             d eps       ncg     rms          rms(c)
DAV:   1    -0.116144498286E+03    0.22450E-03   -0.43643E-02    73   0.107E+00    0.670E-02
RMM:   2    -0.116144505744E+03   -0.74574E-05   -0.91247E-04    70   0.148E-01    0.356E-02
RMM:   3    -0.116144502100E+03    0.36439E-05   -0.13901E-04    59   0.636E-02    0.193E-02
RMM:   4    -0.116144503888E+03   -0.17877E-05   -0.58192E-05    56   0.367E-02
 150 F= -.11638708E+03 E0= -.11638708E+03  d E =0.197435E-03
       N       E                     dE             d eps       ncg     rms          rms(c)
DAV:   1    -0.116144098241E+03    0.40386E-03   -0.12948E-01    70   0.178E+00    0.870E-02
RMM:   2    -0.116144192911E+03   -0.94671E-04   -0.23489E-03    70   0.231E-01    0.503E-02
RMM:   3    -0.116144203850E+03   -0.10939E-04   -0.33917E-04    68   0.977E-02    0.286E-02
RMM:   4    -0.116144211390E+03   -0.75403E-05   -0.11194E-04    63   0.526E-02    0.994E-03
RMM:   5    -0.116144214522E+03   -0.31326E-05   -0.21728E-05    51   0.224E-02
 151 F= -.11638673E+03 E0= -.11638673E+03  d E =0.349946E-03
       N       E                     dE             d eps       ncg     rms          rms(c)
DAV:   1    -0.116143693667E+03    0.51772E-03   -0.56910E-02    76   0.123E+00    0.113E-01
RMM:   2    -0.116143602560E+03    0.91107E-04   -0.14885E-03    70   0.187E-01    0.560E-02
RMM:   3    -0.116143567759E+03    0.34801E-04   -0.22906E-04    68   0.808E-02    0.295E-02
RMM:   4    -0.116143568953E+03   -0.11945E-05   -0.13642E-04    66   0.528E-02    0.113E-02
RMM:   5    -0.116143570076E+03   -0.11224E-05   -0.13486E-05    47   0.197E-02
 152 F= -.11638614E+03 E0= -.11638614E+03  d E =0.591233E-03
[...]
RMM:   3    -0.116144629086E+03    0.18446E-05   -0.21968E-05    50   0.254E-02
 160 F= -.11638717E+03 E0= -.11638717E+03  d E =-.968737E-04
       N       E                     dE             d eps       ncg     rms          rms(c)
DAV:   1    -0.116144704435E+03   -0.73505E-04   -0.56635E-03    70   0.390E-01    0.179E-02
RMM:   2    -0.116144709331E+03   -0.48961E-05   -0.99330E-05    59   0.501E-02
 161 F= -.11638726E+03 E0= -.11638726E+03  d E =-.805910E-04
       N       E                     dE             d eps       ncg     rms          rms(c)
DAV:   1    -0.116144796044E+03   -0.91609E-04   -0.91971E-03    76   0.494E-01    0.225E-02
RMM:   2    -0.116144803389E+03   -0.73447E-05   -0.15816E-04    63   0.617E-02    0.142E-02
RMM:   3    -0.116144805965E+03   -0.25760E-05   -0.24375E-05    52   0.266E-02
 162 F= -.11638735E+03 E0= -.11638735E+03  d E =-.989575E-04
       N       E                     dE             d eps       ncg     rms          rms(c)
DAV:   1    -0.116144845159E+03   -0.41770E-04   -0.38876E-03    70   0.322E-01    0.157E-02
RMM:   2    -0.116144848207E+03   -0.30480E-05   -0.76274E-05    58   0.430E-02
 163 F= -.11638741E+03 E0= -.11638741E+03  d E =-.518190E-04
       N       E                     dE             d eps       ncg     rms          rms(c)
DAV:   1    -0.116144907944E+03   -0.62785E-04   -0.80240E-03    70   0.471E-01    0.270E-02
RMM:   2    -0.116144910466E+03   -0.25229E-05   -0.16676E-04    63   0.640E-02    0.152E-02
RMM:   3    -0.116144910521E+03   -0.54355E-07   -0.24433E-05    52   0.268E-02
 164 F= -.11638746E+03 E0= -.11638746E+03  d E =-.532046E-04
       N       E                     dE             d eps       ncg     rms          rms(c)
DAV:   1    -0.116145012996E+03   -0.10253E-03   -0.11596E-02    70   0.554E-01    0.255E-02
RMM:   2    -0.116145022289E+03   -0.92935E-05   -0.20839E-04    65   0.712E-02    0.152E-02
RMM:   3    -0.116145023926E+03   -0.16367E-05   -0.31606E-05    52   0.301E-02
 165 F= -.11638759E+03 E0= -.11638759E+03  d E =-.128299E-03
       N       E                     dE             d eps       ncg     rms          rms(c)
DAV:   1    -0.116145057068E+03   -0.34779E-04   -0.12011E-03    70   0.181E-01    0.904E-03
RMM:   2    -0.116145057987E+03   -0.91895E-06   -0.24579E-05    51   0.251E-02
 166 F= -.11638762E+03 E0= -.11638762E+03  d E =-.329286E-04
       N       E                     dE             d eps       ncg     rms          rms(c)
DAV:   1    -0.116145094521E+03   -0.37453E-04   -0.17585E-03    73   0.217E-01    0.103E-02
RMM:   2    -0.116145096047E+03   -0.15258E-05   -0.31697E-05    51   0.277E-02
 167 F= -.11638766E+03 E0= -.11638766E+03  d E =-.392530E-04
       N       E                     dE             d eps       ncg     rms          rms(c)
DAV:   1    -0.116145138364E+03   -0.43843E-04   -0.75427E-03    70   0.450E-01    0.213E-02
RMM:   2    -0.116145144031E+03   -0.56672E-05   -0.13666E-04    62   0.576E-02    0.130E-02
RMM:   3    -0.116145145292E+03   -0.12607E-05   -0.20668E-05    49   0.244E-02
 168 F= -.11638772E+03 E0= -.11638772E+03  d E =-.608895E-04
       N       E                     dE             d eps       ncg     rms          rms(c)
DAV:   1    -0.116145207569E+03   -0.63538E-04   -0.26159E-03    70   0.269E-01    0.159E-02
RMM:   2    -0.116145207738E+03   -0.16904E-06   -0.56829E-05    56   0.377E-02
 169 F= -.11638778E+03 E0= -.11638778E+03  d E =-.563410E-04
       N       E                     dE             d eps       ncg     rms          rms(c)
DAV:   1    -0.116145230196E+03   -0.22627E-04   -0.77490E-04    73   0.145E-01    0.868E-03
RMM:   2    -0.116145230843E+03   -0.64737E-06   -0.16182E-05    44   0.199E-02
 170 F= -.11638780E+03 E0= -.11638780E+03  d E =-.251031E-04
       N       E                     dE             d eps       ncg     rms          rms(c)
DAV:   1    -0.116145285317E+03   -0.55121E-04   -0.54186E-03    70   0.379E-01    0.153E-02
RMM:   2    -0.116145290507E+03   -0.51905E-05   -0.87208E-05    58   0.464E-02
 171 F= -.11638787E+03 E0= -.11638787E+03  d E =-.638078E-04
       N       E                     dE             d eps       ncg     rms          rms(c)
DAV:   1    -0.116145321153E+03   -0.35837E-04   -0.13950E-03    70   0.199E-01    0.110E-02
RMM:   2    -0.116145321856E+03   -0.70269E-06   -0.28609E-05    51   0.267E-02
 172 F= -.11638790E+03 E0= -.11638790E+03  d E =-.294139E-04
       N       E                     dE             d eps       ncg     rms          rms(c)
DAV:   1    -0.116145349772E+03   -0.28619E-04   -0.17288E-03    73   0.217E-01    0.110E-02
RMM:   2    -0.116145351249E+03   -0.14767E-05   -0.33784E-05    50   0.287E-02
 173 F= -.11638793E+03 E0= -.11638793E+03  d E =-.349500E-04
       N       E                     dE             d eps       ncg     rms          rms(c)
DAV:   1    -0.116145374170E+03   -0.24398E-04   -0.75760E-04    73   0.145E-01    0.791E-03
RMM:   2    -0.116145374751E+03   -0.58119E-06   -0.15495E-05    43   0.197E-02
 174 F= -.11638795E+03 E0= -.11638795E+03  d E =-.221992E-04
       N       E                     dE             d eps       ncg     rms          rms(c)
DAV:   1    -0.116145426019E+03   -0.51849E-04   -0.78412E-03    70   0.456E-01    0.187E-02
RMM:   2    -0.116145433370E+03   -0.73509E-05   -0.12859E-04    61   0.566E-02    0.117E-02
RMM:   3    -0.116145435584E+03   -0.22137E-05   -0.19349E-05    49   0.239E-02
 175 F= -.11638802E+03 E0= -.11638802E+03  d E =-.674573E-04
       N       E                     dE             d eps       ncg     rms          rms(c)
DAV:   1    -0.116145483504E+03   -0.50134E-04   -0.44922E-03    70   0.347E-01    0.134E-02
RMM:   2    -0.116145488103E+03   -0.45989E-05   -0.75358E-05    57   0.439E-02
 176 F= -.11638807E+03 E0= -.11638807E+03  d E =-.527830E-04
       N       E                     dE             d eps       ncg     rms          rms(c)
DAV:   1    -0.116145528081E+03   -0.44576E-04   -0.40489E-03    70   0.332E-01    0.149E-02
RMM:   2    -0.116145531614E+03   -0.35338E-05   -0.71231E-05    56   0.421E-02
 177 F= -.11638812E+03 E0= -.11638812E+03  d E =-.462208E-04
       N       E                     dE             d eps       ncg     rms          rms(c)
DAV:   1    -0.116145611322E+03   -0.83242E-04   -0.24637E-02    70   0.813E-01    0.319E-02
RMM:   2    -0.116145635240E+03   -0.23918E-04   -0.39623E-04    70   0.999E-02    0.199E-02
RMM:   3    -0.116145642023E+03   -0.67829E-05   -0.60145E-05    57   0.429E-02
 178 F= -.11638823E+03 E0= -.11638823E+03  d E =-.113919E-03
       N       E                     dE             d eps       ncg     rms          rms(c)
DAV:   1    -0.116145679085E+03   -0.43845E-04   -0.37156E-03    70   0.317E-01    0.125E-02
RMM:   2    -0.116145683367E+03   -0.42817E-05   -0.67993E-05    56   0.419E-02
 179 F= -.11638827E+03 E0= -.11638827E+03  d E =-.411442E-04
       N       E                     dE             d eps       ncg     rms          rms(c)
DAV:   1    -0.116145723475E+03   -0.44389E-04   -0.62183E-03    70   0.410E-01    0.175E-02
RMM:   2    -0.116145729366E+03   -0.58916E-05   -0.10844E-04    60   0.520E-02    0.112E-02
RMM:   3    -0.116145731434E+03   -0.20673E-05   -0.16658E-05    49   0.221E-02
 180 F= -.11638833E+03 E0= -.11638833E+03  d E =-.526390E-04
       N       E                     dE             d eps       ncg     rms          rms(c)
DAV:   1    -0.116145802659E+03   -0.73293E-04   -0.54976E-02    70   0.121E+00    0.454E-02
RMM:   2    -0.116145858442E+03   -0.55783E-04   -0.86692E-04    70   0.149E-01    0.277E-02
RMM:   3    -0.116145872697E+03   -0.14254E-04   -0.12958E-04    61   0.631E-02    0.117E-02
RMM:   4    -0.116145876889E+03   -0.41929E-05   -0.30050E-05    54   0.287E-02
 181 F= -.11638847E+03 E0= -.11638847E+03  d E =-.148176E-03
       N       E                     dE             d eps       ncg     rms          rms(c)
DAV:   1    -0.116145908169E+03   -0.35473E-04   -0.69632E-03    76   0.433E-01    0.169E-02
RMM:   2    -0.116145915358E+03   -0.71894E-05   -0.11759E-04    62   0.545E-02    0.106E-02
RMM:   3    -0.116145917397E+03   -0.20387E-05   -0.18587E-05    49   0.229E-02
 182 F= -.11638852E+03 E0= -.11638852E+03  d E =-.463482E-04
       N       E                     dE             d eps       ncg     rms          rms(c)
DAV:   1    -0.116145933042E+03   -0.17683E-04   -0.90646E-04    73   0.160E-01    0.117E-02
RMM:   2    -0.116145932637E+03    0.40509E-06   -0.23479E-05    49   0.240E-02
 183 F= -.11638853E+03 E0= -.11638853E+03  d E =-.934730E-05
       N       E                     dE             d eps       ncg     rms          rms(c)
DAV:   1    -0.116145940716E+03   -0.76746E-05   -0.80078E-04    76   0.149E-01    0.903E-03
RMM:   2    -0.116145941707E+03   -0.99014E-06   -0.19372E-05    48   0.215E-02
 184 F= -.11638854E+03 E0= -.11638854E+03  d E =-.143572E-04
       N       E                     dE             d eps       ncg     rms          rms(c)
DAV:   1    -0.116145956780E+03   -0.16064E-04   -0.79991E-04    76   0.150E-01    0.800E-03
RMM:   2    -0.116145957497E+03   -0.71628E-06   -0.16806E-05    46   0.205E-02
 185 F= -.11638856E+03 E0= -.11638856E+03  d E =-.127731E-04
       N       E                     dE             d eps       ncg     rms          rms(c)
DAV:   1    -0.116145970895E+03   -0.14115E-04   -0.97807E-02    70   0.162E+00    0.624E-02
RMM:   2    -0.116146065364E+03   -0.94469E-04   -0.15284E-03    70   0.198E-01    0.376E-02
RMM:   3    -0.116146091018E+03   -0.25654E-04   -0.22456E-04    70   0.837E-02    0.157E-02
RMM:   4    -0.116146098448E+03   -0.74299E-05   -0.53801E-05    56   0.390E-02
 186 F= -.11638871E+03 E0= -.11638871E+03  d E =-.152455E-03
       N       E                     dE             d eps       ncg     rms          rms(c)
DAV:   1    -0.116146085914E+03    0.51036E-05   -0.27696E-03    70   0.274E-01    0.143E-02
RMM:   2    -0.116146087735E+03   -0.18203E-05   -0.49902E-05    54   0.351E-02
 187 F= -.11638869E+03 E0= -.11638869E+03  d E =0.183912E-04
       N       E                     dE             d eps       ncg     rms          rms(c)
DAV:   1    -0.116146106280E+03   -0.20366E-04   -0.18920E-03    73   0.225E-01    0.816E-03
RMM:   2    -0.116146109274E+03   -0.29940E-05   -0.31135E-05    49   0.282E-02
 188 F= -.11638872E+03 E0= -.11638872E+03  d E =-.263493E-04
       N       E                     dE             d eps       ncg     rms          rms(c)
DAV:   1    -0.116146144891E+03   -0.38611E-04   -0.30768E-03    73   0.293E-01    0.127E-02
RMM:   2    -0.116146147449E+03   -0.25577E-05   -0.51089E-05    53   0.363E-02
 189 F= -.11638876E+03 E0= -.11638876E+03  d E =-.385756E-04
       N       E                     dE             d eps       ncg     rms          rms(c)
DAV:   1    -0.116146190153E+03   -0.45262E-04   -0.54674E-03    70   0.390E-01    0.164E-02
RMM:   2    -0.116146194883E+03   -0.47299E-05   -0.88471E-05    60   0.479E-02
 190 F= -.11638881E+03 E0= -.11638881E+03  d E =-.496288E-04
       N       E                     dE             d eps       ncg     rms          rms(c)
DAV:   1    -0.116146211033E+03   -0.20880E-04   -0.59335E-04    73   0.133E-01    0.806E-03
RMM:   2    -0.116146211456E+03   -0.42294E-06   -0.12295E-05    44   0.178E-02
 191 F= -.11638882E+03 E0= -.11638882E+03  d E =-.187132E-04
       N       E                     dE             d eps       ncg     rms          rms(c)
DAV:   1    -0.116146221983E+03   -0.10950E-04   -0.74188E-04    73   0.143E-01    0.119E-02
RMM:   2    -0.116146221327E+03    0.65589E-06   -0.20157E-05    49   0.220E-02
 192 F= -.11638883E+03 E0= -.11638883E+03  d E =-.392248E-05
       N       E                     dE             d eps       ncg     rms          rms(c)
DAV:   1    -0.116146243688E+03   -0.21705E-04   -0.16887E-03    73   0.218E-01    0.115E-02
RMM:   2    -0.116146245288E+03   -0.16003E-05   -0.35343E-05    50   0.295E-02
 193 F= -.11638886E+03 E0= -.11638886E+03  d E =-.305495E-04
       N       E                     dE             d eps       ncg     rms          rms(c)
DAV:   1    -0.116146281414E+03   -0.37726E-04   -0.28421E-03    70   0.280E-01    0.129E-02
RMM:   2    -0.116146283588E+03   -0.21745E-05   -0.47646E-05    53   0.350E-02
 194 F= -.11638890E+03 E0= -.11638890E+03  d E =-.386499E-04
       N       E                     dE             d eps       ncg     rms          rms(c)
DAV:   1    -0.116146294302E+03   -0.12888E-04   -0.22504E-04    73   0.817E-02    0.531E-03
RMM:   2    -0.116146294530E+03   -0.22769E-06   -0.47264E-06    38   0.110E-02
 195 F= -.11638891E+03 E0= -.11638891E+03  d E =-.116909E-04
       N       E                     dE             d eps       ncg     rms          rms(c)
DAV:   1    -0.116146314894E+03   -0.20592E-04   -0.95838E-04    73   0.161E-01    0.630E-03
RMM:   2    -0.116146315971E+03   -0.10762E-05   -0.15727E-05    43   0.199E-02
 196 F= -.11638893E+03 E0= -.11638893E+03  d E =-.218918E-04
       N       E                     dE             d eps       ncg     rms          rms(c)
DAV:   1    -0.116146349499E+03   -0.34605E-04   -0.51827E-03    70   0.372E-01    0.150E-02
RMM:   2    -0.116146354413E+03   -0.49135E-05   -0.85245E-05    58   0.460E-02
 197 F= -.11638897E+03 E0= -.11638897E+03  d E =-.418984E-04
       N       E                     dE             d eps       ncg     rms          rms(c)
DAV:   1    -0.116146362848E+03   -0.13349E-04   -0.15470E-03    73   0.209E-01    0.171E-02
RMM:   2    -0.116146361328E+03    0.15198E-05   -0.41502E-05    53   0.320E-02
 198 F= -.11638897E+03 E0= -.11638897E+03  d E =0.157443E-05
       N       E                     dE             d eps       ncg     rms          rms(c)
DAV:   1    -0.116146407108E+03   -0.44260E-04   -0.93503E-03    70   0.507E-01    0.239E-02
RMM:   2    -0.116146414717E+03   -0.76087E-05   -0.17431E-04    64   0.661E-02    0.139E-02
RMM:   3    -0.116146416449E+03   -0.17328E-05   -0.25384E-05    50   0.275E-02
 199 F= -.11638904E+03 E0= -.11638904E+03  d E =-.673478E-04
       N       E                     dE             d eps       ncg     rms          rms(c)
DAV:   1    -0.116146454524E+03   -0.39807E-04   -0.25345E-03    70   0.265E-01    0.121E-02
RMM:   2    -0.116146456258E+03   -0.17342E-05   -0.47976E-05    54   0.351E-02
 200 F= -.11638908E+03 E0= -.11638908E+03  d E =-.361694E-04
       N       E                     dE             d eps       ncg     rms          rms(c)
DAV:   1    -0.116146481515E+03   -0.26991E-04   -0.20277E-03    70   0.236E-01    0.114E-02
RMM:   2    -0.116146483098E+03   -0.15827E-05   -0.36762E-05    51   0.305E-02
 201 F= -.11638910E+03 E0= -.11638910E+03  d E =-.293291E-04
       N       E                     dE             d eps       ncg     rms          rms(c)
DAV:   1    -0.116146518179E+03   -0.36664E-04   -0.32064E-03    70   0.297E-01    0.127E-02
RMM:   2    -0.116146520850E+03   -0.26709E-05   -0.53177E-05    53   0.369E-02
 202 F= -.11638914E+03 E0= -.11638914E+03  d E =-.380158E-04
       N       E                     dE             d eps       ncg     rms          rms(c)
DAV:   1    -0.116146581947E+03   -0.63769E-04   -0.17242E-02    70   0.687E-01    0.274E-02
RMM:   2    -0.116146597629E+03   -0.15682E-04   -0.27568E-04    70   0.840E-02    0.171E-02
RMM:   3    -0.116146602632E+03   -0.50026E-05   -0.41646E-05    56   0.359E-02
 203 F= -.11638923E+03 E0= -.11638923E+03  d E =-.869467E-04
       N       E                     dE             d eps       ncg     rms          rms(c)
DAV:   1    -0.116146665987E+03   -0.68358E-04   -0.15059E-02    70   0.643E-01    0.252E-02
RMM:   2    -0.116146680421E+03   -0.14434E-04   -0.25039E-04    69   0.807E-02    0.157E-02
RMM:   3    -0.116146684536E+03   -0.41150E-05   -0.41238E-05    54   0.346E-02
 204 F= -.11638931E+03 E0= -.11638931E+03  d E =-.798900E-04
       N       E                     dE             d eps       ncg     rms          rms(c)
DAV:   1    -0.116146733998E+03   -0.53577E-04   -0.88922E-03    70   0.495E-01    0.202E-02
RMM:   2    -0.116146742190E+03   -0.81916E-05   -0.15086E-04    66   0.626E-02    0.125E-02
RMM:   3    -0.116146744613E+03   -0.24234E-05   -0.24014E-05    52   0.268E-02
 205 F= -.11638938E+03 E0= -.11638938E+03  d E =-.675694E-04
       N       E                     dE             d eps       ncg     rms          rms(c)
DAV:   1    -0.116146795356E+03   -0.53167E-04   -0.54685E-03    70   0.389E-01    0.157E-02
RMM:   2    -0.116146800324E+03   -0.49675E-05   -0.91772E-05    60   0.489E-02
 206 F= -.11638943E+03 E0= -.11638943E+03  d E =-.539268E-04
       N       E                     dE             d eps       ncg     rms          rms(c)
DAV:   1    -0.116146870402E+03   -0.75045E-04   -0.16239E-02    70   0.671E-01    0.284E-02
RMM:   2    -0.116146884077E+03   -0.13675E-04   -0.26317E-04    70   0.824E-02    0.179E-02
RMM:   3    -0.116146889126E+03   -0.50488E-05   -0.40688E-05    56   0.356E-02
 207 F= -.11638952E+03 E0= -.11638952E+03  d E =-.934431E-04
       N       E                     dE             d eps       ncg     rms          rms(c)
DAV:   1    -0.116146945830E+03   -0.61753E-04   -0.74964E-03    70   0.455E-01    0.178E-02
RMM:   2    -0.116146953431E+03   -0.76002E-05   -0.12339E-04    65   0.570E-02    0.113E-02
RMM:   3    -0.116146956186E+03   -0.27558E-05   -0.21014E-05    50   0.245E-02
 208 F= -.11638959E+03 E0= -.11638959E+03  d E =-.680649E-04
       N       E                     dE             d eps       ncg     rms          rms(c)
DAV:   1    -0.116146997846E+03   -0.44416E-04   -0.37443E-03    70   0.323E-01    0.128E-02
RMM:   2    -0.116147001648E+03   -0.38021E-05   -0.61046E-05    55   0.402E-02
 209 F= -.11638964E+03 E0= -.11638964E+03  d E =-.484992E-04
       N       E                     dE             d eps       ncg     rms          rms(c)
DAV:   1    -0.116147054041E+03   -0.56194E-04   -0.40580E-03    70   0.341E-01    0.156E-02
RMM:   2    -0.116147057018E+03   -0.29773E-05   -0.67692E-05    55   0.419E-02
 210 F= -.11638970E+03 E0= -.11638970E+03  d E =-.544391E-04
       N       E                     dE             d eps       ncg     rms          rms(c)
DAV:   1    -0.116147081498E+03   -0.27457E-04   -0.76102E-04    73   0.150E-01    0.865E-03
RMM:   2    -0.116147082149E+03   -0.65060E-06   -0.14412E-05    46   0.193E-02
 211 F= -.11638972E+03 E0= -.11638972E+03  d E =-.277237E-04
       N       E                     dE             d eps       ncg     rms          rms(c)
DAV:   1    -0.116147165536E+03   -0.84038E-04   -0.14170E-02    70   0.630E-01    0.255E-02
RMM:   2    -0.116147177426E+03   -0.11890E-04   -0.21046E-04    69   0.744E-02    0.158E-02
RMM:   3    -0.116147181509E+03   -0.40837E-05   -0.32521E-05    53   0.319E-02
 212 F= -.11638983E+03 E0= -.11638983E+03  d E =-.101803E-03
       N       E                     dE             d eps       ncg     rms          rms(c)
DAV:   1    -0.116147188448E+03   -0.11022E-04   -0.83561E-05    89   0.479E-02    0.328E-03
RMM:   2    -0.116147188765E+03   -0.31671E-06   -0.18719E-06    30   0.689E-03
 213 F= -.11638983E+03 E0= -.11638983E+03  d E =-.641073E-05
       N       E                     dE             d eps       ncg     rms          rms(c)
DAV:   1    -0.116147199248E+03   -0.10800E-04   -0.14690E-04    73   0.646E-02    0.302E-03
RMM:   2    -0.116147199670E+03   -0.42222E-06   -0.24987E-06    35   0.802E-03
 214 F= -.11638984E+03 E0= -.11638984E+03  d E =-.120593E-04
       N       E                     dE             d eps       ncg     rms          rms(c)
DAV:   1    -0.116147286801E+03   -0.87553E-04   -0.12947E-02    70   0.599E-01    0.242E-02
RMM:   2    -0.116147298262E+03   -0.11461E-04   -0.18780E-04    67   0.700E-02    0.148E-02
RMM:   3    -0.116147301333E+03   -0.30711E-05   -0.28081E-05    52   0.293E-02
 215 F= -.11638995E+03 E0= -.11638995E+03  d E =-.102713E-03
