unknown system                          
           1
    15.000000    0.000000    0.000000
     0.000000   15.000000    0.000000
     0.000000    0.000000   15.000000
   C    H    N 
     8     8     2
Direct configuration=     1
   0.37561317  0.54382960  0.57981179
   0.37339161  0.45466637  0.57269007
   0.45492523  0.40061631  0.55552235
   0.46164359  0.59300129  0.58591402
   0.53453116  0.54427607  0.53351625
   0.54147163  0.45077239  0.57567193
   0.61500119  0.59840264  0.53719320
   0.61425970  0.39519430  0.54342913
   0.30997742  0.41903705  0.57328778
   0.45328136  0.33773946  0.59213243
   0.45849685  0.38123585  0.48527923
   0.31391263  0.58184194  0.58597603
   0.48611563  0.59660745  0.65479481
   0.45420902  0.66210257  0.56488526
   0.51808992  0.53725577  0.46294681
   0.55223351  0.45841139  0.64717257
   0.66967604  0.65308522  0.54425663
   0.66174933  0.34027148  0.51593986
Direct configuration=     2
   0.37542399  0.54351071  0.58005986
   0.37327390  0.45493230  0.57233027
   0.45494234  0.40050141  0.55565894
   0.46157743  0.59320874  0.58569173
   0.53495962  0.54444149  0.53379058
   0.54178993  0.45066189  0.57559200
   0.61500709  0.59843226  0.53769323
   0.61426696  0.39527527  0.54354072
   0.30997621  0.41904195  0.57300637
   0.45332422  0.33760058  0.59228340
   0.45850690  0.38111449  0.48503331
   0.31387480  0.58180416  0.58597872
   0.48583852  0.59694659  0.65492519
   0.45421643  0.66226267  0.56443187
   0.51814854  0.53728164  0.46286410
   0.55204724  0.45847706  0.64758183
   0.67014793  0.65296346  0.54475460
   0.66232806  0.34049281  0.51615177
Direct configuration=     3
   0.37533429  0.54352456  0.58028765
   0.37319263  0.45486597  0.57205142
   0.45495089  0.40045965  0.55552379
   0.46152533  0.59330111  0.58561309
   0.53519553  0.54448140  0.53387661
   0.54197003  0.45063937  0.57574847
   0.61526110  0.59872364  0.53804237
   0.61455794  0.39507323  0.54373600
   0.30997517  0.41903777  0.57287138
   0.45330450  0.33732778  0.59205129
   0.45856026  0.38133692  0.48463331
   0.31384320  0.58176357  0.58604113
   0.48563804  0.59715466  0.65503599
   0.45421652  0.66243415  0.56411631
   0.51821180  0.53722898  0.46284986
   0.55176747  0.45855997  0.64795982
   0.67028908  0.65289159  0.54497892
   0.66275324  0.34064949  0.51674525
Direct configuration=     4
   0.37522652  0.54347084  0.58062945
   0.37309784  0.45483860  0.57161725
   0.45499145  0.40036437  0.55526380
   0.46145777  0.59347025  0.58551544
   0.53557857  0.54456497  0.53400901
   0.54226067  0.45057748  0.57601550
   0.61533782  0.59888021  0.53857072
   0.61476591  0.39503609  0.54421714
   0.30993845  0.41901293  0.57263527
   0.45327328  0.33691163  0.59165391
   0.45864111  0.38170269  0.48402643
   0.31375996  0.58171193  0.58616488
   0.48529153  0.59751218  0.65518511
   0.45421732  0.66268432  0.56359542
   0.51833516  0.53715135  0.46286407
   0.55130841  0.45868404  0.64853476
   0.67083871  0.65306456  0.54538813
   0.66370300  0.34064558  0.51758358
Direct configuration=     5
   0.37508482  0.54325551  0.58132432
   0.37298320  0.45487901  0.57067501
   0.45514444  0.40008338  0.55455490
   0.46133104  0.59390527  0.58538087
   0.53625574  0.54470467  0.53430986
   0.54274390  0.45045225  0.57672185
   0.61591273  0.59959458  0.53982072
   0.61558914  0.39462195  0.54522370
   0.30977151  0.41892087  0.57202708
   0.45320316  0.33605324  0.59066500
   0.45881198  0.38254996  0.48276401
   0.31349708  0.58161148  0.58653126
   0.48442845  0.59841264  0.65543155
   0.45421790  0.66315690  0.56236481
   0.51868368  0.53699467  0.46302099
   0.55022986  0.45893588  0.64972658
   0.67188368  0.65315990  0.54632486
   0.66572369  0.34094445  0.51967705
Direct configuration=     6
   0.37512534  0.54330485  0.58124726
   0.37302377  0.45484011  0.57074464
   0.45516120  0.40008982  0.55455405
   0.46134527  0.59389344  0.58541361
   0.53616235  0.54470456  0.53433166
   0.54265188  0.45043416  0.57669083
   0.61589597  0.59956083  0.53975565
   0.61556967  0.39464227  0.54521839
   0.30975974  0.41892637  0.57200933
   0.45320563  0.33615052  0.59067071
   0.45879466  0.38250045  0.48288401
   0.31349605  0.58160319  0.58656889
   0.48443333  0.59842701  0.65537998
   0.45421307  0.66307517  0.56239817
   0.51870134  0.53701754  0.46307630
   0.55026866  0.45889983  0.64960067
   0.67188891  0.65314359  0.54630076
   0.66568283  0.34095751  0.51959653
Direct configuration=     7
   0.37514372  0.54327970  0.58125452
   0.37305978  0.45483580  0.57066122
   0.45520892  0.40006284  0.55442492
   0.46132435  0.59396256  0.58540836
   0.53618657  0.54475261  0.53448694
   0.54261356  0.45035642  0.57674423
   0.61602584  0.59968719  0.53993555
   0.61572994  0.39458216  0.54545338
   0.30971347  0.41892915  0.57180482
   0.45319530  0.33613099  0.59045082
   0.45879758  0.38257814  0.48278838
   0.31344539  0.58154591  0.58675794
   0.48423415  0.59870455  0.65536918
   0.45419893  0.66303036  0.56214704
   0.51881450  0.53703305  0.46322403
   0.55007626  0.45887657  0.64964369
   0.67212904  0.65307634  0.54647555
   0.66609509  0.34109143  0.51995337
Direct configuration=     8
   0.37514690  0.54324241  0.58131679
   0.37309072  0.45481410  0.57046513
   0.45527679  0.40002035  0.55418592
   0.46127375  0.59408496  0.58538389
   0.53630439  0.54484630  0.53475413
   0.54260870  0.45022972  0.57685751
   0.61618419  0.59984933  0.54029533
   0.61600592  0.39449160  0.54589531
   0.30964649  0.41894017  0.57143052
   0.45317549  0.33603934  0.59005589
   0.45880691  0.38273542  0.48254933
   0.31336240  0.58143494  0.58709533
   0.48386161  0.59921879  0.65538104
   0.45417172  0.66299544  0.56165758
   0.51901327  0.53705694  0.46347305
   0.54970188  0.45884373  0.64978244
   0.67264537  0.65301853  0.54681472
   0.66689925  0.34131908  0.52063775
Direct configuration=     9
   0.37516849  0.54329048  0.58121845
   0.37312290  0.45475848  0.57051520
   0.45527643  0.40006617  0.55415563
   0.46125071  0.59407080  0.58539700
   0.53625976  0.54488000  0.53489327
   0.54251270  0.45017188  0.57678334
   0.61624273  0.59985993  0.54031493
   0.61606612  0.39448931  0.54599362
   0.30964611  0.41898365  0.57124902
   0.45317571  0.33615758  0.58998636
   0.45876363  0.38264191  0.48264383
   0.31336809  0.58135202  0.58730778
   0.48374901  0.59945577  0.65534344
   0.45414157  0.66286196  0.56152197
   0.51909155  0.53712704  0.46364963
   0.54964486  0.45874068  0.64960932
   0.67277872  0.65286869  0.54686160
   0.66706873  0.34149031  0.52072191
Direct configuration=    10
   0.37515922  0.54325848  0.58120166
   0.37312327  0.45477244  0.57048169
   0.45526078  0.40009495  0.55409674
   0.46121026  0.59408291  0.58538849
   0.53632261  0.54491639  0.53502757
   0.54251277  0.45013058  0.57674291
   0.61625606  0.59983012  0.54042494
   0.61610211  0.39453017  0.54614298
   0.30964107  0.41902196  0.57103142
   0.45317268  0.33618756  0.58990388
   0.45871978  0.38257691  0.48262033
   0.31335919  0.58126480  0.58754504
   0.48358600  0.59975355  0.65535402
   0.45410475  0.66279219  0.56129185
   0.51916922  0.53719634  0.46380577
   0.54952299  0.45864598  0.64954949
   0.67303573  0.65276295  0.54695839
   0.66740940  0.34163961  0.52090023
Direct configuration=    11
   0.37515651  0.54325467  0.58117420
   0.37311979  0.45477901  0.57050397
   0.45523343  0.40012400  0.55410904
   0.46119304  0.59406418  0.58539235
   0.53632060  0.54491400  0.53506718
   0.54249353  0.45013577  0.57668345
   0.61630929  0.59983133  0.54042763
   0.61613360  0.39451634  0.54610477
   0.30964956  0.41904929  0.57094859
   0.45317509  0.33624522  0.58994749
   0.45867641  0.38247456  0.48267291
   0.31337068  0.58122320  0.58765699
   0.48354815  0.59986639  0.65535516
   0.45407916  0.66273752  0.56123019
   0.51917937  0.53725041  0.46386697
   0.54952519  0.45857299  0.64946022
   0.67304580  0.65262188  0.54693699
   0.66741308  0.34177147  0.52088891
Direct configuration=    12
   0.37513991  0.54324823  0.58122033
   0.37310447  0.45476858  0.57041852
   0.45521716  0.40013056  0.55403765
   0.46115489  0.59409147  0.58538421
   0.53639885  0.54493976  0.53517878
   0.54251709  0.45011175  0.57666571
   0.61636879  0.59982519  0.54057642
   0.61619807  0.39453726  0.54620621
   0.30963657  0.41908270  0.57072980
   0.45316914  0.33624511  0.58990041
   0.45862036  0.38240441  0.48261153
   0.31335345  0.58114121  0.58789664
   0.48337279  0.60017233  0.65538184
   0.45403364  0.66269739  0.56096955
   0.51924046  0.53732403  0.46398623
   0.54939672  0.45847998  0.64945878
   0.67329400  0.65248025  0.54702851
   0.66775749  0.34194970  0.52108717
Direct configuration=    13
   0.37513008  0.54322590  0.58128476
   0.37309276  0.45477841  0.57033027
   0.45521099  0.40011460  0.55397306
   0.46113099  0.59413004  0.58538119
   0.53645390  0.54495719  0.53525391
   0.54253516  0.45009623  0.57666938
   0.61644072  0.59983414  0.54070939
   0.61627442  0.39453352  0.54625417
   0.30961338  0.41909964  0.57056348
   0.45316270  0.33623358  0.58988126
   0.45857256  0.38234979  0.48254734
   0.31332868  0.58108813  0.58808089
   0.48323318  0.60040905  0.65540603
   0.45399515  0.66267882  0.56075624
   0.51927950  0.53738163  0.46405570
   0.54929696  0.45841181  0.64948897
   0.67348206  0.65235710  0.54709606
   0.66801582  0.34210507  0.52124983
Direct configuration=    14
   0.37512109  0.54321446  0.58136499
   0.37308084  0.45477535  0.57022893
   0.45521029  0.40008875  0.55390176
   0.46110862  0.59417726  0.58537931
   0.53650302  0.54497874  0.53532726
   0.54255209  0.45007127  0.57668308
   0.61651479  0.59984175  0.54085066
   0.61633689  0.39454988  0.54630827
   0.30958518  0.41911384  0.57039850
   0.45315360  0.33621604  0.58986426
   0.45852530  0.38230016  0.48247253
   0.31330034  0.58103868  0.58826329
   0.48309102  0.60064642  0.65542972
   0.45395521  0.66266677  0.56053559
   0.51931661  0.53743739  0.46411521
   0.54919454  0.45834860  0.64953606
   0.67368419  0.65224072  0.54716790
   0.66830341  0.34224052  0.52140962
Direct configuration=    15
   0.37510836  0.54319204  0.58148981
   0.37306329  0.45477526  0.57007482
   0.45520483  0.40004774  0.55379398
   0.46107157  0.59425110  0.58537875
   0.53657253  0.54501609  0.53544690
   0.54256744  0.45002999  0.57669395
   0.61661656  0.59982610  0.54106571
   0.61644621  0.39457083  0.54636963
   0.30953909  0.41913978  0.57012847
   0.45313779  0.33620356  0.58985833
   0.45844109  0.38219563  0.48236912
   0.31325677  0.58095707  0.58856929
   0.48286639  0.60103619  0.65546478
   0.45388551  0.66263766  0.56018123
   0.51937197  0.53753668  0.46421275
   0.54904198  0.45823536  0.64959335
   0.67402436  0.65204860  0.54727304
   0.66874101  0.34248295  0.52164465
Direct configuration=    16
   0.37510277  0.54317641  0.58154742
   0.37305629  0.45477847  0.57000324
   0.45519951  0.40002801  0.55374134
   0.46104985  0.59428815  0.58537964
   0.53659719  0.54503441  0.53551199
   0.54256520  0.45000648  0.57669455
   0.61670360  0.59984498  0.54117391
   0.61652458  0.39456251  0.54638757
   0.30951566  0.41915535  0.56998615
   0.45312809  0.33620563  0.58985980
   0.45839587  0.38213207  0.48232480
   0.31323608  0.58091308  0.58873364
   0.48275245  0.60124260  0.65547956
   0.45384724  0.66261629  0.55999901
   0.51940040  0.53759137  0.46426848
   0.54896732  0.45817223  0.64961061
   0.67417220  0.65191422  0.54732090
   0.66894426  0.34263382  0.52176460
Direct configuration=    17
   0.37509478  0.54315643  0.58164061
   0.37304515  0.45477957  0.56989478
   0.45519154  0.39999377  0.55366464
   0.46101816  0.59434612  0.58538250
   0.53663296  0.54506663  0.53560665
   0.54256320  0.44996509  0.57669214
   0.61678408  0.59982277  0.54132757
   0.61659701  0.39459595  0.54641956
   0.30947861  0.41917870  0.56977624
   0.45311097  0.33621183  0.58987700
   0.45832515  0.38202709  0.48226174
   0.31320531  0.58084928  0.58898060
   0.48258650  0.60155057  0.65550008
   0.45378661  0.66258502  0.55972730
   0.51943759  0.53767613  0.46434472
   0.54886343  0.45807578  0.64963684
   0.67443732  0.65174633  0.54739052
   0.66927786  0.34282515  0.52190959
Direct configuration=    18
   0.37508579  0.54313461  0.58174673
   0.37303219  0.45477843  0.56977983
   0.45517266  0.39995408  0.55358358
   0.46097459  0.59441250  0.58538950
   0.53665761  0.54510562  0.53572320
   0.54254420  0.44991252  0.57667111
   0.61689527  0.59979238  0.54149633
   0.61669820  0.39462839  0.54642211
   0.30943557  0.41921383  0.56951920
   0.45308411  0.33624079  0.58992895
   0.45823053  0.38186345  0.48221122
   0.31317481  0.58076774  0.58929607
   0.48239586  0.60193475  0.65551769
   0.45370328  0.66253426  0.55940183
   0.51947489  0.53779119  0.46444211
   0.54875699  0.45794374  0.64963902
   0.67474428  0.65150132  0.54745554
   0.66964311  0.34309316  0.52204610
Direct configuration=    19
   0.37507773  0.54311275  0.58183961
   0.37301973  0.45478012  0.56968728
   0.45514901  0.39991863  0.55352008
   0.46093279  0.59446904  0.58539779
   0.53667139  0.54513954  0.53582585
   0.54252323  0.44986406  0.57663736
   0.61698571  0.59974707  0.54163352
   0.61676038  0.39468552  0.54641055
   0.30939715  0.41924932  0.56928962
   0.45305478  0.33627910  0.59000127
   0.45813838  0.38168997  0.48218347
   0.31315100  0.58069301  0.58958822
   0.48223376  0.60228459  0.65552957
   0.45362067  0.66248250  0.55911369
   0.51950002  0.53790282  0.46453045
   0.54867629  0.45781505  0.64962216
   0.67502406  0.65126405  0.54749998
   0.66997247  0.34332941  0.52212307
Direct configuration=    20
   0.37506642  0.54308346  0.58196924
   0.37300148  0.45478190  0.56956291
   0.45511149  0.39986949  0.55343641
   0.46087299  0.59454633  0.58541022
   0.53668756  0.54518679  0.53596923
   0.54248887  0.44979953  0.57658263
   0.61710270  0.59966878  0.54181789
   0.61686287  0.39475236  0.54637263
   0.30934378  0.41930185  0.56896740
   0.45301045  0.33634003  0.59011738
   0.45800470  0.38143038  0.48215518
   0.31312004  0.58058637  0.59000484
   0.48201082  0.60278031  0.65554389
   0.45349977  0.66240566  0.55871066
   0.51953069  0.53806451  0.46465554
   0.54857109  0.45762804  0.64958736
   0.67542214  0.65092346  0.54755477
   0.67040840  0.34368535  0.52221699
Direct configuration=    21
   0.37506202  0.54307264  0.58201946
   0.37299217  0.45478352  0.56952891
   0.45508595  0.39984973  0.55341850
   0.46084603  0.59457305  0.58541851
   0.53667747  0.54520098  0.53602078
   0.54246508  0.44977729  0.57654055
   0.61716486  0.59963526  0.54187101
   0.61690406  0.39477975  0.54631283
   0.30932304  0.41932875  0.56884410
   0.45298395  0.33638274  0.59020519
   0.45794032  0.38128536  0.48217238
   0.31311370  0.58054187  0.59018272
   0.48193779  0.60298336  0.65554261
   0.45343892  0.66236550  0.55855861
   0.51952809  0.53814077  0.46470453
   0.54855347  0.45753874  0.64954535
   0.67555715  0.65073671  0.54755057
   0.67054067  0.34385775  0.52219722
Direct configuration=    22
   0.37505047  0.54304325  0.58215430
   0.37297047  0.45478687  0.56941560
   0.45503681  0.39979814  0.55334924
   0.46078242  0.59464842  0.58543427
   0.53668137  0.54524644  0.53616125
   0.54242485  0.44971258  0.57646081
   0.61726788  0.59952298  0.54203671
   0.61697257  0.39488320  0.54623903
   0.30926747  0.41938880  0.56851898
   0.45292803  0.33646398  0.59037146
   0.45778968  0.38097233  0.48217358
   0.31308720  0.58043047  0.59062437
   0.48172533  0.60349984  0.65555033
   0.45329982  0.66227741  0.55815205
   0.51954209  0.53831979  0.46483046
   0.54847154  0.45733045  0.64948113
   0.67597182  0.65035508  0.54758123
   0.67097702  0.34422800  0.52221598
Direct configuration=    23
   0.37504032  0.54301706  0.58228188
   0.37294604  0.45479339  0.56933556
   0.45497352  0.39974753  0.55331370
   0.46072038  0.59471242  0.58545441
   0.53665771  0.54528152  0.53627734
   0.54237166  0.44965974  0.57635271
   0.61736947  0.59939578  0.54215183
   0.61703385  0.39498211  0.54608552
   0.30921485  0.41945372  0.56823222
   0.45285875  0.33657006  0.59060305
   0.45762947  0.38060758  0.48222592
   0.31307181  0.58032564  0.59105180
   0.48155889  0.60398534  0.65554447
   0.45314675  0.66218082  0.55779217
   0.51952490  0.53850491  0.46494050
   0.54844042  0.45711321  0.64937555
   0.67633104  0.64992468  0.54756327
   0.67130581  0.34462373  0.52212356
Direct configuration=    24
   0.37503485  0.54300323  0.58236496
   0.37292787  0.45479872  0.56930022
   0.45492634  0.39971346  0.55331120
   0.46068315  0.59474769  0.58546903
   0.53662744  0.54529854  0.53633396
   0.54233488  0.44962958  0.57626763
   0.61741686  0.59929079  0.54219531
   0.61703222  0.39507569  0.54595085
   0.30918090  0.41949710  0.56807531
   0.45280493  0.33665057  0.59079251
   0.45752034  0.38034333  0.48228902
   0.31306687  0.58026408  0.59131514
   0.48148082  0.60427652  0.65553280
   0.45303887  0.66211664  0.55758892
   0.51949230  0.53862524  0.46499660
   0.54845104  0.45697097  0.64928838
   0.67654494  0.64963134  0.54752401
   0.67148459  0.34486341  0.52197996
Direct configuration=    25
   0.37503632  0.54300623  0.58235666
   0.37292843  0.45479939  0.56931558
   0.45492622  0.39971578  0.55332595
   0.46068880  0.59473952  0.58546839
   0.53661878  0.54529269  0.53631479
   0.54233286  0.44963829  0.57626773
   0.61740489  0.59929061  0.54216924
   0.61703478  0.39505859  0.54592613
   0.30918442  0.41949339  0.56811232
   0.45280418  0.33665048  0.59080071
   0.45752811  0.38035107  0.48230299
   0.31307079  0.58027520  0.59127800
   0.48151035  0.60422962  0.65552855
   0.45304385  0.66212255  0.55763109
   0.51948033  0.53861267  0.46497956
   0.54847151  0.45698518  0.64928473
   0.67650453  0.64964795  0.54750835
   0.67141488  0.34485104  0.52194735
Direct configuration=    26
   0.37503534  0.54300306  0.58238049
   0.37292250  0.45480139  0.56931233
   0.45491031  0.39970527  0.55333376
   0.46067944  0.59474654  0.58547282
   0.53660345  0.54529549  0.53632215
   0.54232072  0.44963116  0.57623868
   0.61740886  0.59925121  0.54216810
   0.61701958  0.39509418  0.54587214
   0.30917456  0.41950552  0.56808230
   0.45278535  0.33667698  0.59086981
   0.45749578  0.38026674  0.48233211
   0.31307092  0.58026155  0.59134405
   0.48150200  0.60429930  0.65552247
   0.45301020  0.66210547  0.55758741
   0.51946147  0.53864517  0.46498734
   0.54848709  0.45694638  0.64925425
   0.67655894  0.64956243  0.54748649
   0.67144851  0.34491235  0.52187260
Direct configuration=    27
   0.37502648  0.54298389  0.58259958
   0.37286204  0.45481956  0.56932769
   0.45475371  0.39960729  0.55346643
   0.46060381  0.59478842  0.58550896
   0.53641458  0.54529201  0.53631942
   0.54218737  0.44959834  0.57596270
   0.61745193  0.59889442  0.54207184
   0.61692914  0.39534336  0.54522028
   0.30908443  0.41961109  0.56792077
   0.45259191  0.33693544  0.59158743
   0.45720162  0.37945787  0.48266511
   0.31308111  0.58016900  0.59186766
   0.48152579  0.60482459  0.65545151
   0.45268962  0.66196459  0.55729848
   0.51922650  0.53891755  0.46499617
   0.54871035  0.45661951  0.64894812
   0.67693008  0.64874848  0.54721431
   0.67150621  0.34550592  0.52102265
Direct configuration=    28
   0.37502673  0.54298337  0.58256857
   0.37287140  0.45481753  0.56931691
   0.45478051  0.39961889  0.55343674
   0.46061538  0.59478771  0.58550265
   0.53645312  0.54529989  0.53632414
   0.54221353  0.44959604  0.57601300
   0.61742077  0.59893373  0.54209725
   0.61692881  0.39532000  0.54534771
   0.30909682  0.41959275  0.56793937
   0.45262436  0.33688784  0.59146105
   0.45725064  0.37959668  0.48260095
   0.31307612  0.58018320  0.59178871
   0.48151315  0.60474949  0.65546521
   0.45274175  0.66199127  0.55733108
   0.51926901  0.53887123  0.46499532
   0.54866301  0.45667568  0.64900901
   0.67690873  0.64890143  0.54727186
   0.67153905  0.34539620  0.52117101
Direct configuration=    29
   0.37502476  0.54297907  0.58260894
   0.37286033  0.45482071  0.56931769
   0.45475310  0.39959915  0.55345842
   0.46060221  0.59479758  0.58550895
   0.53641880  0.54530067  0.53632136
   0.54219052  0.44958764  0.57596864
   0.61743593  0.59887934  0.54208266
   0.61691389  0.39536247  0.54523555
   0.30908013  0.41960974  0.56791528
   0.45259032  0.33692940  0.59158415
   0.45720137  0.37945993  0.48265634
   0.31307671  0.58016903  0.59187650
   0.48151922  0.60483812  0.65545314
   0.45268582  0.66197080  0.55728031
   0.51922689  0.53891468  0.46499292
   0.54869995  0.45662373  0.64896177
   0.67696918  0.64875384  0.54722697
   0.67155232  0.34549938  0.52102146
Direct configuration=    30
   0.37502234  0.54297576  0.58263946
   0.37285223  0.45482149  0.56931373
   0.45473500  0.39958320  0.55346940
   0.46059232  0.59480760  0.58551219
   0.53639781  0.54530326  0.53632008
   0.54217450  0.44958065  0.57594413
   0.61744719  0.59884411  0.54207857
   0.61691994  0.39537876  0.54516012
   0.30906743  0.41962023  0.56789713
   0.45256730  0.33695325  0.59166161
   0.45716931  0.37937249  0.48268763
   0.31307520  0.58015940  0.59193724
   0.48151991  0.60490174  0.65544581
   0.45264782  0.66196013  0.55723894
   0.51919992  0.53894103  0.46499041
   0.54871831  0.45659247  0.64893731
   0.67701981  0.64865665  0.54720413
   0.67156298  0.34558001  0.52093391
Direct configuration=    31
   0.37501963  0.54297168  0.58267397
   0.37284278  0.45482279  0.56931017
   0.45471454  0.39956545  0.55348283
   0.46058106  0.59481859  0.58551579
   0.53637514  0.54530593  0.53631864
   0.54215965  0.44957094  0.57591366
   0.61744901  0.59879439  0.54207193
   0.61689833  0.39542235  0.54508490
   0.30905287  0.41963235  0.56787663
   0.45254072  0.33698108  0.59175124
   0.45713219  0.37927113  0.48272445
   0.31307368  0.58014818  0.59200703
   0.48152114  0.60497446  0.65543703
   0.45260409  0.66194722  0.55719235
   0.51916874  0.53897152  0.46498781
   0.54874035  0.45655601  0.64890775
   0.67708682  0.64855211  0.54717788
   0.67159689  0.34565199  0.52082111
Direct configuration=    32
   0.37496783  0.54289059  0.58333921
   0.37266119  0.45485387  0.56924351
   0.45431547  0.39922224  0.55374163
   0.46036134  0.59503418  0.58558426
   0.53592220  0.54535236  0.53629229
   0.54184019  0.44940749  0.57533954
   0.61759731  0.59792521  0.54195548
   0.61673462  0.39604363  0.54352877
   0.30877011  0.41986701  0.56747987
   0.45202452  0.33751724  0.59347987
   0.45641595  0.37731354  0.48343599
   0.31304370  0.57992992  0.59336031
   0.48154250  0.60638798  0.65526304
   0.45175603  0.66169674  0.55628724
   0.51856741  0.53955980  0.46494300
   0.54915984  0.45585390  0.64833360
   0.67828659  0.64644085  0.54667018
   0.67205740  0.34723708  0.51873432
Direct configuration=    33
   0.37497726  0.54290825  0.58320113
   0.37269744  0.45484640  0.56925491
   0.45440005  0.39928943  0.55368047
   0.46040491  0.59499536  0.58556806
   0.53602209  0.54534439  0.53630139
   0.54190875  0.44944022  0.57546718
   0.61758806  0.59812572  0.54198994
   0.61679247  0.39589699  0.54386426
   0.30882720  0.41981737  0.56756064
   0.45213018  0.33740082  0.59310199
   0.45656896  0.37773251  0.48328338
   0.31304861  0.57997199  0.59308289
   0.48153086  0.60610389  0.65529274
   0.45193067  0.66174854  0.55646526
   0.51869820  0.53943078  0.46495741
   0.54905844  0.45600750  0.64845773
   0.67803309  0.64685493  0.54679289
   0.67196915  0.34693466  0.51918762
Direct configuration=    34
   0.37497017  0.54289804  0.58328587
   0.37267375  0.45485001  0.56924549
   0.45435026  0.39924529  0.55371019
   0.46037598  0.59502507  0.58557496
   0.53596960  0.54535243  0.53630061
   0.54187114  0.44941727  0.57539687
   0.61759453  0.59800645  0.54197868
   0.61676443  0.39598427  0.54368183
   0.30879007  0.41984687  0.56750949
   0.45206340  0.33746557  0.59331231
   0.45647993  0.37748945  0.48337084
   0.31304380  0.57994232  0.59325783
   0.48152973  0.60628992  0.65526732
   0.45182155  0.66171686  0.55634395
   0.51862490  0.53950186  0.46495490
   0.54910402  0.45592237  0.64838714
   0.67820577  0.64658775  0.54673976
   0.67205001  0.34713737  0.51892321
Direct configuration=    35
   0.37496848  0.54289609  0.58329819
   0.37266967  0.45484992  0.56924257
   0.45434433  0.39923851  0.55371017
   0.46036993  0.59503261  0.58557204
   0.53596617  0.54535444  0.53630374
   0.54186728  0.44941263  0.57539208
   0.61760486  0.59799768  0.54198478
   0.61677357  0.39598889  0.54366856
   0.30878266  0.41985064  0.56750097
   0.45205174  0.33746954  0.59332794
   0.45646986  0.37746307  0.48337862
   0.31304123  0.57993497  0.59328788
   0.48152332  0.60632710  0.65525834
   0.45180346  0.66171240  0.55631603
   0.51861889  0.53950600  0.46495914
   0.54909824  0.45591671  0.64838108
   0.67823819  0.64653327  0.54674864
   0.67207578  0.34718606  0.51889689
Direct configuration=    36
   0.37495597  0.54288024  0.58341891
   0.37263405  0.45485244  0.56922539
   0.45427756  0.39917652  0.55373984
   0.46032280  0.59508382  0.58556766
   0.53590379  0.54536690  0.53631254
   0.54181888  0.44937595  0.57530907
   0.61764163  0.59785038  0.54199318
   0.61676728  0.39609725  0.54345596
   0.30872408  0.41989143  0.56742619
   0.45195068  0.33754376  0.59357845
   0.45635235  0.37714632  0.48348688
   0.31302865  0.57988244  0.59355270
   0.48150156  0.60662599  0.65520488
   0.45164087  0.66166724  0.55610907
   0.51853013  0.53958613  0.46497014
   0.54912330  0.45581785  0.64829442
   0.67851138  0.64610181  0.54672761
   0.67224321  0.34753313  0.51855415
Direct configuration=    37
   0.37495649  0.54288086  0.58340708
   0.37263714  0.45485200  0.56922688
   0.45428476  0.39918334  0.55373424
   0.46032589  0.59508053  0.58556389
   0.53591289  0.54536669  0.53631435
   0.54182386  0.44937810  0.57532113
   0.61763633  0.59786204  0.54199783
   0.61677547  0.39608450  0.54348849
   0.30872840  0.41988744  0.56743388
   0.45195880  0.33753202  0.59354199
   0.45636560  0.37718430  0.48347273
   0.31302830  0.57988465  0.59353199
   0.48149826  0.60660694  0.65520504
   0.45165430  0.66167116  0.55611931
   0.51854261  0.53957260  0.46497265
   0.54911065  0.45583330  0.64830646
   0.67850153  0.64613326  0.54674531
   0.67224223  0.34751700  0.51859281
Direct configuration=    38
   0.37495444  0.54287805  0.58342631
   0.37263149  0.45485258  0.56922484
   0.45427364  0.39917372  0.55373935
   0.46031816  0.59508846  0.58556277
   0.53590107  0.54536821  0.53631575
   0.54181442  0.44937240  0.57530800
   0.61765030  0.59784281  0.54199982
   0.61677956  0.39609878  0.54345177
   0.30871916  0.41989424  0.56742285
   0.45194247  0.33754389  0.59358198
   0.45634649  0.37713379  0.48349054
   0.31302626  0.57987592  0.59357536
   0.48149442  0.60665609  0.65519586
   0.45162782  0.66166338  0.55608515
   0.51852844  0.53958497  0.46497450
   0.54911427  0.45581779  0.64829289
   0.67854063  0.64605516  0.54674273
   0.67226602  0.34757989  0.51853742
Direct configuration=    39
   0.37495270  0.54287640  0.58343832
   0.37262769  0.45485232  0.56922381
   0.45426706  0.39916826  0.55374201
   0.46031276  0.59509354  0.58556023
   0.53589594  0.54536933  0.53631708
   0.54180991  0.44936804  0.57530069
   0.61764905  0.59782252  0.54200166
   0.61677542  0.39611452  0.54343619
   0.30871295  0.41989854  0.56741654
   0.45193172  0.33755013  0.59360334
   0.45633463  0.37710422  0.48350074
   0.31302446  0.57986947  0.59360401
   0.48149033  0.60668990  0.65518816
   0.45161049  0.66165804  0.55606041
   0.51852046  0.53959055  0.46497618
   0.54911367  0.45581000  0.64828511
   0.67857843  0.64600972  0.54674700
   0.67229240  0.34761834  0.51850074
Direct configuration=    40
   0.37494899  0.54287233  0.58346507
   0.37261934  0.45485239  0.56922174
   0.45425190  0.39915566  0.55374839
   0.46030083  0.59510483  0.58555532
   0.53588175  0.54537070  0.53631942
   0.54179751  0.44935990  0.57528464
   0.61766387  0.59779082  0.54200632
   0.61678223  0.39613557  0.54339181
   0.30869925  0.41990800  0.56740264
   0.45190806  0.33756470  0.59365278
   0.45630797  0.37703756  0.48352403
   0.31302057  0.57985570  0.59366691
   0.48148200  0.60676345  0.65517184
   0.45157227  0.66164618  0.55600700
   0.51850207  0.53960385  0.46497951
   0.54911380  0.45579183  0.64826749
   0.67864529  0.64589858  0.54675287
   0.67233463  0.34771371  0.51842445
Direct configuration=    41
   0.37494432  0.54286700  0.58349730
   0.37260912  0.45485272  0.56922008
   0.45423348  0.39914045  0.55375582
   0.46028610  0.59511883  0.58554834
   0.53586504  0.54537280  0.53632233
   0.54178286  0.44934910  0.57526569
   0.61768185  0.59775045  0.54201286
   0.61678517  0.39616757  0.54334258
   0.30868252  0.41991938  0.56738732
   0.45187930  0.33758135  0.59371031
   0.45627583  0.37695901  0.48355201
   0.31301553  0.57983846  0.59374414
   0.48147077  0.60685447  0.65515049
   0.45152559  0.66163120  0.55593997
   0.51848060  0.53961818  0.46498384
   0.54911205  0.45577135  0.64824741
   0.67872965  0.64575975  0.54676359
   0.67239423  0.34782964  0.51832878
Direct configuration=    42
   0.37490558  0.54282422  0.58377141
   0.37252292  0.45485433  0.56920424
   0.45407689  0.39901056  0.55382240
   0.46016360  0.59523497  0.58549478
   0.53572452  0.54539159  0.53634439
   0.54165864  0.44926115  0.57509985
   0.61779581  0.59738410  0.54205791
   0.61681159  0.39642896  0.54290422
   0.30854195  0.42001604  0.56725366
   0.45163684  0.33772949  0.59421616
   0.45600040  0.37627974  0.48379377
   0.31297498  0.57969605  0.59439268
   0.48138321  0.60761324  0.65497704
   0.45113214  0.66150582  0.55538507
   0.51829272  0.53974925  0.46501575