   18   18 5000    1
  0.1875000E+03  0.1500000E-08  0.1500000E-08  0.1500000E-08  0.1000000E-15
  1.000000000000000E-004
  CAR 
 unknown system                          
     50      1     35
 
  0.0000000E+00  0.0000000E+00  0.0000000E+00  0.1000000E+01
      1        -22.837179   1.000000
      2        -22.539137   1.000000
      3        -21.741702   1.000000
      4        -19.670237   1.000000
      5        -19.520542   1.000000
      6        -16.692706   1.000000
      7        -16.397527   1.000000
      8        -13.857639   1.000000
      9        -13.506126   1.000000
     10        -13.175894   1.000000
     11        -11.843708   1.000000
     12        -11.515501   1.000000
     13        -11.000243   1.000000
     14        -10.599665   1.000000
     15        -10.223462   1.000000
     16         -9.815227   1.000000
     17         -9.077431   1.000000
     18         -8.833620   1.000000
     19         -8.594302   1.000000
     20         -8.389201   1.000000
     21         -8.301343   1.000000
     22         -8.107201   1.000000
     23         -7.878133   1.000000
     24         -7.850376   1.000000
     25         -6.600123   1.000000
     26         -1.462351   0.000000
     27         -1.039970   0.000000
     28         -0.810077   0.000000
     29         -0.567757   0.000000
     30         -0.437481   0.000000
     31         -0.300952   0.000000
     32          0.072841   0.000000
     33          0.122334   0.000000
     34          0.184813   0.000000
     35          0.439891   0.000000
