       N       E                     dE             d eps       ncg     rms          rms(c)
DAV:   1     0.450057292201E+03    0.45006E+03   -0.12756E+04    86   0.725E+02
DAV:   2     0.775337546758E+02   -0.37252E+03   -0.35087E+03   124   0.142E+02
DAV:   3    -0.104805905254E+03   -0.18234E+03   -0.18178E+03    76   0.115E+02
DAV:   4    -0.126447500243E+03   -0.21642E+02   -0.21525E+02    92   0.554E+01
DAV:   5    -0.126871262974E+03   -0.42376E+00   -0.42003E+00   100   0.851E+00    0.183E+01
RMM:   6    -0.118012495333E+03    0.88588E+01   -0.12848E+01    70   0.139E+01    0.101E+01
RMM:   7    -0.115884513711E+03    0.21280E+01   -0.94770E+00    70   0.119E+01    0.442E+00
RMM:   8    -0.115686321912E+03    0.19819E+00   -0.10958E+00    70   0.484E+00    0.241E+00
RMM:   9    -0.115607794147E+03    0.78528E-01   -0.37019E-01    71   0.248E+00    0.444E-01
RMM:  10    -0.115618357315E+03   -0.10563E-01   -0.86323E-02    80   0.112E+00    0.299E-01
RMM:  11    -0.115631835096E+03   -0.13478E-01   -0.33200E-02    70   0.737E-01    0.276E-01
RMM:  12    -0.115631926974E+03   -0.91878E-04   -0.44637E-03    70   0.319E-01    0.140E-01
RMM:  13    -0.115648004442E+03   -0.16077E-01   -0.16946E-02    70   0.433E-01    0.128E-01
RMM:  14    -0.115647649857E+03    0.35458E-03   -0.23917E-03    70   0.199E-01    0.572E-02
RMM:  15    -0.115658231806E+03   -0.10582E-01   -0.38621E-03    70   0.208E-01    0.573E-02
RMM:  16    -0.115659143649E+03   -0.91184E-03   -0.11324E-03    78   0.929E-02    0.337E-02
RMM:  17    -0.115659746631E+03   -0.60298E-03   -0.13931E-04    67   0.444E-02    0.212E-02
RMM:  18    -0.115661883199E+03   -0.21366E-02   -0.31687E-04    70   0.614E-02    0.117E-02
RMM:  19    -0.115662374879E+03   -0.49168E-03   -0.79962E-05    61   0.317E-02    0.131E-02
RMM:  20    -0.115662739232E+03   -0.36435E-03   -0.61167E-05    62   0.250E-02    0.493E-03
RMM:  21    -0.115662767401E+03   -0.28169E-04   -0.12182E-05    46   0.119E-02    0.225E-03
RMM:  22    -0.115662861934E+03   -0.94533E-04   -0.48112E-06    45   0.765E-03    0.147E-03
RMM:  23    -0.115662889271E+03   -0.27337E-04   -0.23896E-06    39   0.578E-03    0.138E-03
RMM:  24    -0.115662906011E+03   -0.16740E-04   -0.82992E-07    33   0.398E-03    0.848E-04
RMM:  25    -0.115662908635E+03   -0.26236E-05   -0.10253E-07    22   0.286E-03
   1 F= -.11591307E+03 E0= -.11591307E+03  d E =-.115913E+03
       N       E                     dE             d eps       ncg     rms          rms(c)
DAV:   1    -0.115678041671E+03   -0.15136E-01   -0.35376E-01    92   0.342E+00    0.164E-01
RMM:   2    -0.115678265689E+03   -0.22402E-03   -0.66405E-03    70   0.454E-01    0.939E-02
RMM:   3    -0.115678267474E+03   -0.17851E-05   -0.11647E-03    70   0.193E-01    0.475E-02
RMM:   4    -0.115678304548E+03   -0.37074E-04   -0.34674E-04    73   0.980E-02    0.265E-02
RMM:   5    -0.115678314771E+03   -0.10222E-04   -0.63187E-05    66   0.454E-02    0.108E-02
RMM:   6    -0.115678318754E+03   -0.39830E-05   -0.18140E-05    46   0.231E-02
   2 F= -.11592849E+03 E0= -.11592849E+03  d E =-.154200E-01
       N       E                     dE             d eps       ncg     rms          rms(c)
DAV:   1    -0.115687709614E+03   -0.93948E-02   -0.20959E-01    76   0.264E+00    0.152E-01
RMM:   2    -0.115687762906E+03   -0.53292E-04   -0.40787E-03    70   0.359E-01    0.825E-02
RMM:   3    -0.115687736551E+03    0.26355E-04   -0.71765E-04    70   0.154E-01    0.377E-02
RMM:   4    -0.115687757047E+03   -0.20495E-04   -0.26667E-04    71   0.858E-02    0.152E-02
RMM:   5    -0.115687761794E+03   -0.47471E-05   -0.47624E-05    57   0.369E-02
   3 F= -.11593797E+03 E0= -.11593797E+03  d E =-.947286E-02
       N       E                     dE             d eps       ncg     rms          rms(c)
DAV:   1    -0.115700580636E+03   -0.12824E-01   -0.49902E-01    70   0.399E+00    0.203E-01
RMM:   2    -0.115700848676E+03   -0.26804E-03   -0.87611E-03    70   0.502E-01    0.110E-01
RMM:   3    -0.115700889238E+03   -0.40562E-04   -0.15778E-03    70   0.220E-01    0.577E-02
RMM:   4    -0.115700948356E+03   -0.59118E-04   -0.45762E-04    73   0.111E-01    0.334E-02
RMM:   5    -0.115700965157E+03   -0.16801E-04   -0.85513E-05    69   0.517E-02    0.118E-02
RMM:   6    -0.115700972187E+03   -0.70298E-05   -0.25189E-05    49   0.268E-02
   4 F= -.11595115E+03 E0= -.11595115E+03  d E =-.131838E-01
       N       E                     dE             d eps       ncg     rms          rms(c)
DAV:   1    -0.115720050369E+03   -0.19085E-01   -0.22090E+00    70   0.842E+00    0.409E-01
RMM:   2    -0.115721334955E+03   -0.12846E-02   -0.32099E-02    70   0.986E-01    0.215E-01
RMM:   3    -0.115721642385E+03   -0.30743E-03   -0.61415E-03    70   0.435E-01    0.101E-01
RMM:   4    -0.115721888839E+03   -0.24645E-03   -0.17083E-03    78   0.210E-01    0.514E-02
RMM:   5    -0.115721931007E+03   -0.42168E-04   -0.32201E-04    73   0.964E-02    0.161E-02
RMM:   6    -0.115721942286E+03   -0.11279E-04   -0.71811E-05    61   0.466E-02    0.139E-02
RMM:   7    -0.115721945395E+03   -0.31087E-05   -0.10809E-05    46   0.175E-02
   5 F= -.11597209E+03 E0= -.11597209E+03  d E =-.209394E-01
       N       E                     dE             d eps       ncg     rms          rms(c)
DAV:   1    -0.115722718038E+03   -0.77575E-03   -0.18850E-02    92   0.783E-01    0.324E-02
RMM:   2    -0.115722738198E+03   -0.20159E-04   -0.32373E-04    70   0.102E-01    0.215E-02
RMM:   3    -0.115722744447E+03   -0.62492E-05   -0.56618E-05    68   0.436E-02
   6 F= -.11597287E+03 E0= -.11597287E+03  d E =-.784891E-03
       N       E                     dE             d eps       ncg     rms          rms(c)
DAV:   1    -0.115727870090E+03   -0.51319E-02   -0.13536E-01    70   0.201E+00    0.818E-02
RMM:   2    -0.115727953149E+03   -0.83060E-04   -0.17829E-03    70   0.227E-01    0.479E-02
RMM:   3    -0.115727997463E+03   -0.44314E-04   -0.30171E-04    70   0.983E-02    0.175E-02
RMM:   4    -0.115728012808E+03   -0.15345E-04   -0.86819E-05    66   0.472E-02    0.793E-03
RMM:   5    -0.115728016089E+03   -0.32804E-05   -0.13633E-05    46   0.207E-02
   7 F= -.11597809E+03 E0= -.11597809E+03  d E =-.521823E-02
       N       E                     dE             d eps       ncg     rms          rms(c)
DAV:   1    -0.115736434024E+03   -0.84212E-02   -0.44578E-01    70   0.365E+00    0.149E-01
RMM:   2    -0.115736723819E+03   -0.28979E-03   -0.58536E-03    70   0.408E-01    0.863E-02
RMM:   3    -0.115736848048E+03   -0.12423E-03   -0.99237E-04    70   0.176E-01    0.333E-02
RMM:   4    -0.115736894489E+03   -0.46442E-04   -0.28921E-04    76   0.849E-02    0.148E-02
RMM:   5    -0.115736901536E+03   -0.70467E-05   -0.46287E-05    54   0.371E-02
   8 F= -.11598690E+03 E0= -.11598690E+03  d E =-.880957E-02
       N       E                     dE             d eps       ncg     rms          rms(c)
DAV:   1    -0.115740803677E+03   -0.39092E-02   -0.13115E-01    70   0.194E+00    0.797E-02
RMM:   2    -0.115740891548E+03   -0.87870E-04   -0.18129E-03    70   0.228E-01    0.467E-02
RMM:   3    -0.115740929566E+03   -0.38018E-04   -0.29855E-04    70   0.983E-02    0.167E-02
RMM:   4    -0.115740944378E+03   -0.14811E-04   -0.78072E-05    63   0.476E-02    0.713E-03
RMM:   5    -0.115740949222E+03   -0.48445E-05   -0.17347E-05    49   0.219E-02
   9 F= -.11599089E+03 E0= -.11599089E+03  d E =-.399033E-02
       N       E                     dE             d eps       ncg     rms          rms(c)
DAV:   1    -0.115745782613E+03   -0.48382E-02   -0.18389E-01    70   0.225E+00    0.895E-02
RMM:   2    -0.115745924013E+03   -0.14140E-03   -0.26340E-03    70   0.262E-01    0.544E-02
RMM:   3    -0.115745972372E+03   -0.48359E-04   -0.40506E-04    70   0.111E-01    0.209E-02
RMM:   4    -0.115745991672E+03   -0.19301E-04   -0.10384E-04    63   0.542E-02    0.758E-03
RMM:   5    -0.115745996936E+03   -0.52635E-05   -0.29119E-05    51   0.255E-02
  10 F= -.11599587E+03 E0= -.11599587E+03  d E =-.497929E-02
       N       E                     dE             d eps       ncg     rms          rms(c)
DAV:   1    -0.115748062797E+03   -0.20711E-02   -0.56232E-02    70   0.124E+00    0.563E-02
RMM:   2    -0.115748109257E+03   -0.46460E-04   -0.94130E-04    70   0.155E-01    0.316E-02
RMM:   3    -0.115748124851E+03   -0.15594E-04   -0.14601E-04    65   0.664E-02    0.149E-02
RMM:   4    -0.115748132625E+03   -0.77734E-05   -0.39968E-05    55   0.334E-02
  11 F= -.11599798E+03 E0= -.11599798E+03  d E =-.210909E-02
       N       E                     dE             d eps       ncg     rms          rms(c)
DAV:   1    -0.115753181213E+03   -0.50564E-02   -0.21332E-01    70   0.240E+00    0.951E-02
RMM:   2    -0.115753347852E+03   -0.16664E-03   -0.30521E-03    70   0.283E-01    0.576E-02
RMM:   3    -0.115753411863E+03   -0.64011E-04   -0.46742E-04    70   0.119E-01    0.210E-02
RMM:   4    -0.115753432474E+03   -0.20611E-04   -0.11973E-04    65   0.565E-02    0.792E-03
RMM:   5    -0.115753437114E+03   -0.46397E-05   -0.26678E-05    51   0.254E-02
  12 F= -.11600322E+03 E0= -.11600322E+03  d E =-.523422E-02
       N       E                     dE             d eps       ncg     rms          rms(c)
DAV:   1    -0.115757368963E+03   -0.39365E-02   -0.13590E-01    70   0.192E+00    0.752E-02
RMM:   2    -0.115757475370E+03   -0.10641E-03   -0.19773E-03    70   0.230E-01    0.452E-02
RMM:   3    -0.115757519568E+03   -0.44198E-04   -0.30736E-04    70   0.974E-02    0.164E-02
RMM:   4    -0.115757533598E+03   -0.14029E-04   -0.77891E-05    61   0.467E-02    0.602E-03
RMM:   5    -0.115757537832E+03   -0.42340E-05   -0.18892E-05    49   0.219E-02
  13 F= -.11600727E+03 E0= -.11600727E+03  d E =-.405501E-02
       N       E                     dE             d eps       ncg     rms          rms(c)
DAV:   1    -0.115761376737E+03   -0.38431E-02   -0.13729E-01    70   0.193E+00    0.769E-02
RMM:   2    -0.115761480258E+03   -0.10352E-03   -0.20359E-03    70   0.231E-01    0.461E-02
RMM:   3    -0.115761523836E+03   -0.43577E-04   -0.31352E-04    70   0.980E-02    0.192E-02
RMM:   4    -0.115761539275E+03   -0.15439E-04   -0.79779E-05    59   0.478E-02    0.743E-03
RMM:   5    -0.115761543363E+03   -0.40888E-05   -0.21436E-05    50   0.223E-02
  14 F= -.11601122E+03 E0= -.11601122E+03  d E =-.395030E-02
       N       E                     dE             d eps       ncg     rms          rms(c)
DAV:   1    -0.115767445990E+03   -0.59067E-02   -0.37890E-01    70   0.320E+00    0.125E-01
RMM:   2    -0.115767759020E+03   -0.31303E-03   -0.54908E-03    70   0.382E-01    0.753E-02
RMM:   3    -0.115767867353E+03   -0.10833E-03   -0.84533E-04    70   0.161E-01    0.267E-02
RMM:   4    -0.115767904296E+03   -0.36942E-04   -0.21229E-04    72   0.766E-02    0.986E-03
RMM:   5    -0.115767912327E+03   -0.80312E-05   -0.53366E-05    55   0.360E-02
  15 F= -.11601752E+03 E0= -.11601752E+03  d E =-.629604E-02
       N       E                     dE             d eps       ncg     rms          rms(c)
DAV:   1    -0.115771015250E+03   -0.31110E-02   -0.10539E-01    70   0.169E+00    0.666E-02
RMM:   2    -0.115771096285E+03   -0.81035E-04   -0.15767E-03    70   0.204E-01    0.402E-02
RMM:   3    -0.115771134744E+03   -0.38459E-04   -0.24268E-04    70   0.867E-02    0.152E-02
RMM:   4    -0.115771147024E+03   -0.12280E-04   -0.60239E-05    57   0.422E-02    0.525E-03
RMM:   5    -0.115771151711E+03   -0.46872E-05   -0.16555E-05    48   0.198E-02
  16 F= -.11602072E+03 E0= -.11602072E+03  d E =-.320107E-02
       N       E                     dE             d eps       ncg     rms          rms(c)
DAV:   1    -0.115775601929E+03   -0.44549E-02   -0.23987E-01    70   0.254E+00    0.991E-02
RMM:   2    -0.115775795553E+03   -0.19362E-03   -0.35006E-03    70   0.303E-01    0.599E-02
RMM:   3    -0.115775869291E+03   -0.73738E-04   -0.53324E-04    70   0.128E-01    0.221E-02
RMM:   4    -0.115775894509E+03   -0.25217E-04   -0.13500E-04    66   0.610E-02    0.796E-03
RMM:   5    -0.115775900101E+03   -0.55918E-05   -0.32464E-05    52   0.281E-02
  17 F= -.11602540E+03 E0= -.11602540E+03  d E =-.468691E-02
       N       E                     dE             d eps       ncg     rms          rms(c)
DAV:   1    -0.115781197641E+03   -0.53031E-02   -0.38278E-01    70   0.321E+00    0.124E-01
RMM:   2    -0.115781523468E+03   -0.32583E-03   -0.55905E-03    70   0.383E-01    0.755E-02
RMM:   3    -0.115781633163E+03   -0.10969E-03   -0.84650E-04    70   0.161E-01    0.267E-02
RMM:   4    -0.115781669860E+03   -0.36697E-04   -0.20845E-04    70   0.765E-02    0.908E-03
RMM:   5    -0.115781679174E+03   -0.93138E-05   -0.56360E-05    57   0.363E-02
  18 F= -.11603112E+03 E0= -.11603112E+03  d E =-.571125E-02
       N       E                     dE             d eps       ncg     rms          rms(c)
DAV:   1    -0.115786437322E+03   -0.47675E-02   -0.32691E-01    70   0.297E+00    0.115E-01
RMM:   2    -0.115786711237E+03   -0.27392E-03   -0.48270E-03    70   0.355E-01    0.701E-02
RMM:   3    -0.115786805029E+03   -0.93792E-04   -0.72689E-04    70   0.149E-01    0.270E-02
RMM:   4    -0.115786838375E+03   -0.33346E-04   -0.17518E-04    67   0.716E-02    0.912E-03
RMM:   5    -0.115786847805E+03   -0.94295E-05   -0.55193E-05    56   0.347E-02
  19 F= -.11603621E+03 E0= -.11603621E+03  d E =-.509698E-02
       N       E                     dE             d eps       ncg     rms          rms(c)
DAV:   1    -0.115793090875E+03   -0.62525E-02   -0.66379E-01    70   0.422E+00    0.163E-01
RMM:   2    -0.115793677826E+03   -0.58695E-03   -0.97135E-03    70   0.504E-01    0.994E-02
RMM:   3    -0.115793853091E+03   -0.17527E-03   -0.14589E-03    70   0.212E-01    0.349E-02
RMM:   4    -0.115793913399E+03   -0.60307E-04   -0.35615E-04    71   0.999E-02    0.116E-02
RMM:   5    -0.115793929215E+03   -0.15816E-04   -0.10072E-04    63   0.476E-02    0.357E-03
RMM:   6    -0.115793933996E+03   -0.47812E-05   -0.14353E-05    47   0.206E-02
  20 F= -.11604321E+03 E0= -.11604321E+03  d E =-.700027E-02
       N       E                     dE             d eps       ncg     rms          rms(c)
DAV:   1    -0.115796779710E+03   -0.28505E-02   -0.12423E-01    70   0.183E+00    0.708E-02
RMM:   2    -0.115796881922E+03   -0.10221E-03   -0.18422E-03    70   0.219E-01    0.432E-02
RMM:   3    -0.115796924803E+03   -0.42881E-04   -0.27444E-04    70   0.917E-02    0.153E-02
RMM:   4    -0.115796938563E+03   -0.13760E-04   -0.66799E-05    58   0.428E-02    0.516E-03
RMM:   5    -0.115796943584E+03   -0.50210E-05   -0.15401E-05    48   0.192E-02
  21 F= -.11604619E+03 E0= -.11604619E+03  d E =-.297615E-02
       N       E                     dE             d eps       ncg     rms          rms(c)
DAV:   1    -0.115803106150E+03   -0.61676E-02   -0.75611E-01    70   0.451E+00    0.175E-01
RMM:   2    -0.115803776988E+03   -0.67084E-03   -0.11090E-02    70   0.537E-01    0.106E-01
RMM:   3    -0.115803973258E+03   -0.19627E-03   -0.16470E-03    70   0.224E-01    0.392E-02
RMM:   4    -0.115804040386E+03   -0.67128E-04   -0.40372E-04    71   0.106E-01    0.129E-02
RMM:   5    -0.115804055877E+03   -0.15490E-04   -0.11215E-04    63   0.499E-02    0.584E-03
RMM:   6    -0.115804060802E+03   -0.49257E-05   -0.15786E-05    47   0.217E-02
  22 F= -.11605321E+03 E0= -.11605321E+03  d E =-.701838E-02
       N       E                     dE             d eps       ncg     rms          rms(c)
DAV:   1    -0.115809922607E+03   -0.58667E-02   -0.73179E-01    70   0.444E+00    0.171E-01
RMM:   2    -0.115810578332E+03   -0.65572E-03   -0.10773E-02    70   0.528E-01    0.105E-01
RMM:   3    -0.115810770469E+03   -0.19214E-03   -0.15920E-03    70   0.221E-01    0.368E-02
RMM:   4    -0.115810833652E+03   -0.63183E-04   -0.38137E-04    71   0.103E-01    0.120E-02
RMM:   5    -0.115810850403E+03   -0.16751E-04   -0.10746E-04    63   0.485E-02    0.362E-03
RMM:   6    -0.115810855264E+03   -0.48611E-05   -0.14592E-05    47   0.208E-02
  23 F= -.11605992E+03 E0= -.11605992E+03  d E =-.671346E-02
       N       E                     dE             d eps       ncg     rms          rms(c)
DAV:   1    -0.115814728448E+03   -0.38780E-02   -0.29738E-01    70   0.284E+00    0.111E-01
RMM:   2    -0.115814977451E+03   -0.24900E-03   -0.44453E-03    70   0.339E-01    0.675E-02
RMM:   3    -0.115815064335E+03   -0.86884E-04   -0.65536E-04    70   0.142E-01    0.263E-02
RMM:   4    -0.115815093536E+03   -0.29201E-04   -0.15531E-04    65   0.671E-02    0.840E-03
RMM:   5    -0.115815102359E+03   -0.88230E-05   -0.48489E-05    57   0.317E-02
  24 F= -.11606411E+03 E0= -.11606411E+03  d E =-.418669E-02
       N       E                     dE             d eps       ncg     rms          rms(c)
DAV:   1    -0.115814673543E+03    0.41999E-03   -0.77210E-03    76   0.467E-01    0.283E-02
RMM:   2    -0.115814677252E+03   -0.37089E-05   -0.15621E-04    63   0.615E-02    0.158E-02
RMM:   3    -0.115814679414E+03   -0.21623E-05   -0.22650E-05    50   0.256E-02
  25 F= -.11606371E+03 E0= -.11606371E+03  d E =0.400939E-03
       N       E                     dE             d eps       ncg     rms          rms(c)
DAV:   1    -0.115815844414E+03   -0.11672E-02   -0.22494E-02    70   0.786E-01    0.311E-02
RMM:   2    -0.115815863206E+03   -0.18792E-04   -0.34283E-04    69   0.944E-02    0.186E-02
RMM:   3    -0.115815869794E+03   -0.65880E-05   -0.49881E-05    56   0.391E-02
  26 F= -.11606488E+03 E0= -.11606488E+03  d E =-.117332E-02
       N       E                     dE             d eps       ncg     rms          rms(c)
DAV:   1    -0.115823543488E+03   -0.76803E-02   -0.15959E+00    70   0.664E+00    0.261E-01
RMM:   2    -0.115825100005E+03   -0.15565E-02   -0.24185E-02    70   0.797E-01    0.157E-01
RMM:   3    -0.115825461896E+03   -0.36189E-03   -0.35848E-03    70   0.334E-01    0.606E-02
RMM:   4    -0.115825588363E+03   -0.12647E-03   -0.82416E-04    70   0.157E-01    0.209E-02
RMM:   5    -0.115825622779E+03   -0.34416E-04   -0.28542E-04    75   0.762E-02    0.877E-03
RMM:   6    -0.115825628807E+03   -0.60285E-05   -0.29326E-05    49   0.301E-02
  27 F= -.11607455E+03 E0= -.11607455E+03  d E =-.966848E-02
       N       E                     dE             d eps       ncg     rms          rms(c)
DAV:   1    -0.115824114957E+03    0.15078E-02   -0.39782E-02    70   0.106E+00    0.440E-02
RMM:   2    -0.115824152571E+03   -0.37614E-04   -0.63645E-04    70   0.129E-01    0.266E-02
RMM:   3    -0.115824168038E+03   -0.15467E-04   -0.93073E-05    59   0.538E-02    0.118E-02
RMM:   4    -0.115824176978E+03   -0.89394E-05   -0.24642E-05    52   0.265E-02
  28 F= -.11607312E+03 E0= -.11607312E+03  d E =0.143184E-02
       N       E                     dE             d eps       ncg     rms          rms(c)
DAV:   1    -0.115825825150E+03   -0.16571E-02   -0.50355E-02    70   0.118E+00    0.472E-02
RMM:   2    -0.115825864939E+03   -0.39790E-04   -0.75973E-04    70   0.141E-01    0.282E-02
RMM:   3    -0.115825879423E+03   -0.14484E-04   -0.11149E-04    63   0.588E-02    0.120E-02
RMM:   4    -0.115825884946E+03   -0.55234E-05   -0.27537E-05    53   0.283E-02
  29 F= -.11607480E+03 E0= -.11607480E+03  d E =-.168435E-02
       N       E                     dE             d eps       ncg     rms          rms(c)
DAV:   1    -0.115827009237E+03   -0.11298E-02   -0.25344E-02    70   0.836E-01    0.339E-02
RMM:   2    -0.115827031141E+03   -0.21904E-04   -0.40883E-04    69   0.103E-01    0.209E-02
RMM:   3    -0.115827039134E+03   -0.79933E-05   -0.61930E-05    59   0.433E-02
  30 F= -.11607595E+03 E0= -.11607595E+03  d E =-.114906E-02
       N       E                     dE             d eps       ncg     rms          rms(c)
DAV:   1    -0.115828354370E+03   -0.13232E-02   -0.32382E-02    70   0.945E-01    0.380E-02
RMM:   2    -0.115828381427E+03   -0.27057E-04   -0.51577E-04    70   0.116E-01    0.234E-02
RMM:   3    -0.115828392283E+03   -0.10856E-04   -0.80699E-05    59   0.493E-02    0.973E-03
RMM:   4    -0.115828395964E+03   -0.36805E-05   -0.19662E-05    50   0.232E-02
  31 F= -.11607729E+03 E0= -.11607729E+03  d E =-.133834E-02
       N       E                     dE             d eps       ncg     rms          rms(c)
DAV:   1    -0.115835732967E+03   -0.73407E-02   -0.12048E+01    70   0.182E+01    0.765E-01
RMM:   2    -0.115849290727E+03   -0.13558E-01   -0.18960E-01    70   0.222E+00    0.430E-01
RMM:   3    -0.115851288376E+03   -0.19976E-02   -0.27511E-02    70   0.919E-01    0.208E-01
RMM:   4    -0.115852015337E+03   -0.72696E-03   -0.64298E-03    70   0.433E-01    0.747E-02
RMM:   5    -0.115852287513E+03   -0.27218E-03   -0.21019E-03    80   0.210E-01    0.372E-02
RMM:   6    -0.115852335701E+03   -0.48188E-04   -0.23417E-04    70   0.852E-02    0.117E-02
RMM:   7    -0.115852360979E+03   -0.25278E-04   -0.40259E-05    51   0.350E-02    0.834E-03
RMM:   8    -0.115852396421E+03   -0.35442E-04   -0.14920E-05    46   0.189E-02    0.225E-03
RMM:   9    -0.115852406132E+03   -0.97110E-05   -0.31096E-06    45   0.903E-03
  32 F= -.11610102E+03 E0= -.11610102E+03  d E =-.237326E-01
       N       E                     dE             d eps       ncg     rms          rms(c)
DAV:   1    -0.115847215559E+03    0.51809E-02   -0.49997E-01    70   0.370E+00    0.145E-01
RMM:   2    -0.115847668476E+03   -0.45292E-03   -0.74704E-03    70   0.441E-01    0.876E-02
RMM:   3    -0.115847810848E+03   -0.14237E-03   -0.10949E-03    70   0.184E-01    0.323E-02
RMM:   4    -0.115847857402E+03   -0.46554E-04   -0.25154E-04    70   0.865E-02    0.105E-02
RMM:   5    -0.115847869182E+03   -0.11780E-04   -0.81936E-05    61   0.416E-02    0.422E-03
RMM:   6    -0.115847871455E+03   -0.22736E-05   -0.10621E-05    47   0.175E-02
  33 F= -.11609656E+03 E0= -.11609656E+03  d E =0.446547E-02
       N       E                     dE             d eps       ncg     rms          rms(c)
DAV:   1    -0.115850628962E+03   -0.27598E-02   -0.20817E-01    70   0.239E+00    0.934E-02
RMM:   2    -0.115850811700E+03   -0.18274E-03   -0.31083E-03    70   0.284E-01    0.565E-02
RMM:   3    -0.115850875238E+03   -0.63538E-04   -0.45118E-04    70   0.118E-01    0.218E-02
RMM:   4    -0.115850893129E+03   -0.17891E-04   -0.10402E-04    63   0.554E-02    0.728E-03
RMM:   5    -0.115850896207E+03   -0.30778E-05   -0.29564E-05    52   0.260E-02
  34 F= -.11609954E+03 E0= -.11609954E+03  d E =-.298165E-02
       N       E                     dE             d eps       ncg     rms          rms(c)
DAV:   1    -0.115851460543E+03   -0.56741E-03   -0.76560E-03    70   0.462E-01    0.182E-02
RMM:   2    -0.115851467276E+03   -0.67336E-05   -0.12101E-04    65   0.567E-02    0.110E-02
RMM:   3    -0.115851469465E+03   -0.21891E-05   -0.19926E-05    50   0.244E-02
  35 F= -.11610010E+03 E0= -.11610010E+03  d E =-.567268E-03
       N       E                     dE             d eps       ncg     rms          rms(c)
DAV:   1    -0.115855422069E+03   -0.39548E-02   -0.51536E-01    70   0.377E+00    0.148E-01
RMM:   2    -0.115855892915E+03   -0.47085E-03   -0.77314E-03    70   0.449E-01    0.896E-02
RMM:   3    -0.115856029234E+03   -0.13632E-03   -0.11469E-03    70   0.189E-01    0.326E-02
RMM:   4    -0.115856069922E+03   -0.40688E-04   -0.27349E-04    71   0.881E-02    0.111E-02
RMM:   5    -0.115856079621E+03   -0.96987E-05   -0.77993E-05    61   0.417E-02
  36 F= -.11610466E+03 E0= -.11610466E+03  d E =-.455406E-02
       N       E                     dE             d eps       ncg     rms          rms(c)
DAV:   1    -0.115855795907E+03    0.27402E-03   -0.37468E-03    84   0.323E-01    0.202E-02
RMM:   2    -0.115855798244E+03   -0.23372E-05   -0.75772E-05    57   0.434E-02
  37 F= -.11610437E+03 E0= -.11610437E+03  d E =0.285834E-03
       N       E                     dE             d eps       ncg     rms          rms(c)
DAV:   1    -0.115856549386E+03   -0.75348E-03   -0.15041E-02    70   0.644E-01    0.236E-02
RMM:   2    -0.115856566056E+03   -0.16670E-04   -0.22832E-04    69   0.773E-02    0.136E-02
RMM:   3    -0.115856570806E+03   -0.47498E-05   -0.33306E-05    51   0.317E-02
  38 F= -.11610514E+03 E0= -.11610514E+03  d E =-.767262E-03
       N       E                     dE             d eps       ncg     rms          rms(c)
DAV:   1    -0.115857095307E+03   -0.52925E-03   -0.69373E-03    70   0.439E-01    0.179E-02
RMM:   2    -0.115857101533E+03   -0.62264E-05   -0.10960E-04    63   0.538E-02    0.111E-02
RMM:   3    -0.115857104786E+03   -0.32528E-05   -0.17984E-05    50   0.229E-02
  39 F= -.11610567E+03 E0= -.11610567E+03  d E =-.525401E-03
       N       E                     dE             d eps       ncg     rms          rms(c)
DAV:   1    -0.115858210575E+03   -0.11090E-02   -0.32894E-02    70   0.954E-01    0.374E-02
RMM:   2    -0.115858239724E+03   -0.29148E-04   -0.49983E-04    70   0.115E-01    0.230E-02
RMM:   3    -0.115858250205E+03   -0.10481E-04   -0.76728E-05    59   0.486E-02    0.809E-03
RMM:   4    -0.115858253567E+03   -0.33622E-05   -0.18594E-05    50   0.221E-02
  40 F= -.11610680E+03 E0= -.11610680E+03  d E =-.113333E-02
       N       E                     dE             d eps       ncg     rms          rms(c)
DAV:   1    -0.115859603639E+03   -0.13534E-02   -0.52287E-02    70   0.121E+00    0.476E-02
RMM:   2    -0.115859649882E+03   -0.46242E-04   -0.79720E-04    70   0.144E-01    0.290E-02
RMM:   3    -0.115859664382E+03   -0.14500E-04   -0.11932E-04    62   0.607E-02    0.107E-02
RMM:   4    -0.115859669046E+03   -0.46643E-05   -0.28121E-05    53   0.276E-02
  41 F= -.11610820E+03 E0= -.11610820E+03  d E =-.140087E-02
       N       E                     dE             d eps       ncg     rms          rms(c)
DAV:   1    -0.115866314320E+03   -0.66499E-02   -0.35702E+00    70   0.993E+00    0.401E-01
RMM:   2    -0.115869887953E+03   -0.35736E-02   -0.53881E-02    70   0.119E+00    0.237E-01
RMM:   3    -0.115870566348E+03   -0.67839E-03   -0.78828E-03    70   0.494E-01    0.973E-02
RMM:   4    -0.115870826689E+03   -0.26034E-03   -0.18177E-03    70   0.231E-01    0.345E-02
RMM:   5    -0.115870903362E+03   -0.76672E-04   -0.61504E-04    80   0.112E-01    0.168E-02
RMM:   6    -0.115870916537E+03   -0.13176E-04   -0.53936E-05    52   0.444E-02    0.526E-03
RMM:   7    -0.115870927692E+03   -0.11154E-04   -0.17840E-05    47   0.225E-02    0.509E-03
RMM:   8    -0.115870941439E+03   -0.13747E-04   -0.45196E-06    45   0.109E-02    0.112E-03
RMM:   9    -0.115870947279E+03   -0.58402E-05   -0.12779E-06    40   0.616E-03
  42 F= -.11611931E+03 E0= -.11611931E+03  d E =-.111096E-01
       N       E                     dE             d eps       ncg     rms          rms(c)
DAV:   1    -0.115872082662E+03   -0.11412E-02   -0.43876E-02    73   0.111E+00    0.446E-02
RMM:   2    -0.115872121890E+03   -0.39228E-04   -0.66529E-04    70   0.132E-01    0.268E-02
RMM:   3    -0.115872136984E+03   -0.15094E-04   -0.99176E-05    60   0.555E-02    0.997E-03
RMM:   4    -0.115872142369E+03   -0.53847E-05   -0.22576E-05    52   0.254E-02
  43 F= -.11612049E+03 E0= -.11612049E+03  d E =-.118386E-02
       N       E                     dE             d eps       ncg     rms          rms(c)
DAV:   1    -0.115872166987E+03   -0.30003E-04   -0.61726E-04    92   0.131E-01    0.110E-02
RMM:   2    -0.115872167165E+03   -0.17785E-06   -0.17974E-05    49   0.208E-02
  44 F= -.11612051E+03 E0= -.11612051E+03  d E =-.206405E-04
       N       E                     dE             d eps       ncg     rms          rms(c)
DAV:   1    -0.115872612095E+03   -0.44511E-03   -0.66387E-03    70   0.432E-01    0.175E-02
RMM:   2    -0.115872618351E+03   -0.62557E-05   -0.10330E-04    65   0.523E-02    0.105E-02
RMM:   3    -0.115872621205E+03   -0.28541E-05   -0.16091E-05    47   0.221E-02
  45 F= -.11612096E+03 E0= -.11612096E+03  d E =-.449727E-03
       N       E                     dE             d eps       ncg     rms          rms(c)
DAV:   1    -0.115874121868E+03   -0.15035E-02   -0.85334E-02    70   0.155E+00    0.617E-02
RMM:   2    -0.115874194929E+03   -0.73061E-04   -0.12915E-03    70   0.185E-01    0.375E-02
RMM:   3    -0.115874219376E+03   -0.24447E-04   -0.19538E-04    69   0.782E-02    0.142E-02
RMM:   4    -0.115874226940E+03   -0.75639E-05   -0.47280E-05    57   0.369E-02
  46 F= -.11612254E+03 E0= -.11612254E+03  d E =-.158024E-02
       N       E                     dE             d eps       ncg     rms          rms(c)
DAV:   1    -0.115877614826E+03   -0.33955E-02   -0.90192E+00    70   0.160E+01    0.669E-01
RMM:   2    -0.115887188998E+03   -0.95742E-02   -0.13846E-01    70   0.191E+00    0.382E-01
RMM:   3    -0.115888672249E+03   -0.14833E-02   -0.20322E-02    70   0.798E-01    0.170E-01
RMM:   4    -0.115889269508E+03   -0.59726E-03   -0.46911E-03    70   0.374E-01    0.613E-02
RMM:   5    -0.115889463439E+03   -0.19393E-03   -0.15608E-03    80   0.181E-01    0.300E-02
RMM:   6    -0.115889494948E+03   -0.31509E-04   -0.14130E-04    67   0.726E-02    0.850E-03
RMM:   7    -0.115889517258E+03   -0.22310E-04   -0.48793E-05    51   0.374E-02    0.100E-02
RMM:   8    -0.115889542022E+03   -0.24765E-04   -0.10656E-05    46   0.166E-02    0.188E-03
RMM:   9    -0.115889556601E+03   -0.14578E-04   -0.28346E-06    43   0.836E-03    0.128E-03
RMM:  10    -0.115889587593E+03   -0.30992E-04   -0.38252E-06    45   0.695E-03    0.390E-03
RMM:  11    -0.115889592035E+03   -0.44421E-05   -0.85505E-07    32   0.385E-03
  47 F= -.11613769E+03 E0= -.11613769E+03  d E =-.151427E-01
       N       E                     dE             d eps       ncg     rms          rms(c)
DAV:   1    -0.115886677872E+03    0.29097E-02   -0.28126E-01    70   0.281E+00    0.110E-01
RMM:   2    -0.115886931186E+03   -0.25331E-03   -0.41607E-03    70   0.331E-01    0.667E-02
RMM:   3    -0.115887008778E+03   -0.77592E-04   -0.61160E-04    70   0.139E-01    0.234E-02
RMM:   4    -0.115887031264E+03   -0.22486E-04   -0.14237E-04    68   0.643E-02    0.819E-03
RMM:   5    -0.115887036634E+03   -0.53702E-05   -0.39553E-05    56   0.300E-02
  48 F= -.11613518E+03 E0= -.11613518E+03  d E =0.251044E-02
       N       E                     dE             d eps       ncg     rms          rms(c)
DAV:   1    -0.115888497828E+03   -0.14666E-02   -0.11587E-01    70   0.181E+00    0.723E-02
RMM:   2    -0.115888598812E+03   -0.10098E-03   -0.16868E-03    70   0.211E-01    0.432E-02
RMM:   3    -0.115888633699E+03   -0.34888E-04   -0.24596E-04    70   0.880E-02    0.159E-02
RMM:   4    -0.115888643867E+03   -0.10167E-04   -0.59400E-05    59   0.403E-02    0.597E-03
RMM:   5    -0.115888645451E+03   -0.15837E-05   -0.11078E-05    46   0.172E-02
  49 F= -.11613676E+03 E0= -.11613676E+03  d E =-.158223E-02
       N       E                     dE             d eps       ncg     rms          rms(c)
DAV:   1    -0.115889111757E+03   -0.46789E-03   -0.15491E-02    73   0.672E-01    0.278E-02
RMM:   2    -0.115889124588E+03   -0.12831E-04   -0.23575E-04    69   0.800E-02    0.162E-02
RMM:   3    -0.115889128540E+03   -0.39525E-05   -0.38603E-05    55   0.345E-02
  50 F= -.11613724E+03 E0= -.11613724E+03  d E =-.480098E-03
       N       E                     dE             d eps       ncg     rms          rms(c)
DAV:   1    -0.115890391134E+03   -0.12665E-02   -0.10669E-01    70   0.175E+00    0.708E-02
RMM:   2    -0.115890481169E+03   -0.90035E-04   -0.16094E-03    70   0.208E-01    0.426E-02
RMM:   3    -0.115890511747E+03   -0.30578E-04   -0.25195E-04    70   0.888E-02    0.166E-02
RMM:   4    -0.115890521055E+03   -0.93081E-05   -0.66920E-05    60   0.420E-02
  51 F= -.11613861E+03 E0= -.11613861E+03  d E =-.136839E-02
       N       E                     dE             d eps       ncg     rms          rms(c)
DAV:   1    -0.115890935685E+03   -0.42394E-03   -0.15634E-02    73   0.679E-01    0.288E-02
RMM:   2    -0.115890948067E+03   -0.12382E-04   -0.24295E-04    68   0.812E-02    0.175E-02
RMM:   3    -0.115890952017E+03   -0.39503E-05   -0.38988E-05    55   0.347E-02
  52 F= -.11613904E+03 E0= -.11613904E+03  d E =-.430673E-03
       N       E                     dE             d eps       ncg     rms          rms(c)
DAV:   1    -0.115891659742E+03   -0.71167E-03   -0.33892E-02    70   0.989E-01    0.403E-02
RMM:   2    -0.115891688753E+03   -0.29011E-04   -0.51246E-04    70   0.118E-01    0.243E-02
RMM:   3    -0.115891699115E+03   -0.10363E-04   -0.82437E-05    61   0.506E-02    0.918E-03
RMM:   4    -0.115891702599E+03   -0.34835E-05   -0.20743E-05    49   0.230E-02
  53 F= -.11613978E+03 E0= -.11613978E+03  d E =-.740811E-03
       N       E                     dE             d eps       ncg     rms          rms(c)
DAV:   1    -0.115884691675E+03    0.70074E-02   -0.16147E+01    70   0.216E+01    0.959E-01
RMM:   2    -0.115902159004E+03   -0.17467E-01   -0.25015E-01    70   0.259E+00    0.519E-01
RMM:   3    -0.115904700817E+03   -0.25418E-02   -0.37862E-02    70   0.109E+00    0.257E-01
RMM:   4    -0.115905681295E+03   -0.98048E-03   -0.92237E-03    71   0.514E-01    0.100E-01
RMM:   5    -0.115906019390E+03   -0.33809E-03   -0.25980E-03    79   0.244E-01    0.468E-02
RMM:   6    -0.115906081990E+03   -0.62600E-04   -0.29670E-04    73   0.102E-01    0.137E-02
RMM:   7    -0.115906119833E+03   -0.37843E-04   -0.97031E-05    58   0.516E-02    0.143E-02
RMM:   8    -0.115906166921E+03   -0.47088E-04   -0.19360E-05    47   0.218E-02    0.826E-03
RMM:   9    -0.115906175749E+03   -0.88279E-05   -0.42765E-06    45   0.112E-02
  54 F= -.11615398E+03 E0= -.11615398E+03  d E =-.142027E-01
       N       E                     dE             d eps       ncg     rms          rms(c)
DAV:   1    -0.115889045384E+03    0.17122E-01   -0.66607E+00    70   0.138E+01    0.559E-01
RMM:   2    -0.115895550931E+03   -0.65055E-02   -0.97604E-02    70   0.162E+00    0.332E-01
RMM:   3    -0.115896658121E+03   -0.11072E-02   -0.14773E-02    70   0.684E-01    0.125E-01
RMM:   4    -0.115897131101E+03   -0.47298E-03   -0.35412E-03    71   0.320E-01    0.460E-02
RMM:   5    -0.115897252893E+03   -0.12179E-03   -0.10396E-03    79   0.151E-01    0.169E-02
RMM:   6    -0.115897269350E+03   -0.16457E-04   -0.10440E-04    63   0.616E-02    0.823E-03
RMM:   7    -0.115897284736E+03   -0.15385E-04   -0.34895E-05    51   0.322E-02    0.524E-03
RMM:   8    -0.115897298730E+03   -0.13994E-04   -0.78157E-06    46   0.145E-02    0.179E-03
RMM:   9    -0.115897305463E+03   -0.67328E-05   -0.19173E-06    44   0.729E-03
  55 F= -.11614529E+03 E0= -.11614529E+03  d E =0.869020E-02
       N       E                     dE             d eps       ncg     rms          rms(c)
DAV:   1    -0.115898934748E+03   -0.16360E-02   -0.28627E-01    70   0.287E+00    0.117E-01
RMM:   2    -0.115899187684E+03   -0.25294E-03   -0.41919E-03    70   0.336E-01    0.689E-02
RMM:   3    -0.115899266227E+03   -0.78543E-04   -0.63775E-04    70   0.142E-01    0.267E-02
RMM:   4    -0.115899293821E+03   -0.27594E-04   -0.15214E-04    69   0.664E-02    0.102E-02
RMM:   5    -0.115899300376E+03   -0.65545E-05   -0.40111E-05    54   0.312E-02
  56 F= -.11614725E+03 E0= -.11614725E+03  d E =-.196112E-02
       N       E                     dE             d eps       ncg     rms          rms(c)
DAV:   1    -0.115900059478E+03   -0.76566E-03   -0.54797E-02    70   0.126E+00    0.508E-02
RMM:   2    -0.115900105216E+03   -0.45738E-04   -0.83670E-04    70   0.150E-01    0.304E-02
RMM:   3    -0.115900120501E+03   -0.15285E-04   -0.13387E-04    69   0.648E-02    0.118E-02
RMM:   4    -0.115900125531E+03   -0.50296E-05   -0.34016E-05    55   0.309E-02
  57 F= -.11614806E+03 E0= -.11614806E+03  d E =-.806680E-03
       N       E                     dE             d eps       ncg     rms          rms(c)
DAV:   1    -0.115899907599E+03    0.21290E-03   -0.40257E-03    78   0.339E-01    0.143E-02
RMM:   2    -0.115899911200E+03   -0.36011E-05   -0.62475E-05    55   0.405E-02
  58 F= -.11614785E+03 E0= -.11614785E+03  d E =0.207867E-03
       N       E                     dE             d eps       ncg     rms          rms(c)
DAV:   1    -0.115900218456E+03   -0.31086E-03   -0.84031E-03    73   0.490E-01    0.181E-02
RMM:   2    -0.115900226675E+03   -0.82184E-05   -0.11595E-04    66   0.563E-02    0.102E-02
RMM:   3    -0.115900228954E+03   -0.22790E-05   -0.18042E-05    47   0.234E-02
  59 F= -.11614816E+03 E0= -.11614816E+03  d E =-.312233E-03
       N       E                     dE             d eps       ncg     rms          rms(c)
DAV:   1    -0.115901870709E+03   -0.16440E-02   -0.38159E-01    70   0.333E+00    0.136E-01
RMM:   2    -0.115902191759E+03   -0.32105E-03   -0.56213E-03    70   0.391E-01    0.806E-02
RMM:   3    -0.115902292402E+03   -0.10064E-03   -0.88126E-04    70   0.167E-01    0.309E-02
RMM:   4    -0.115902324389E+03   -0.31987E-04   -0.21885E-04    72   0.783E-02    0.128E-02
RMM:   5    -0.115902330735E+03   -0.63462E-05   -0.53735E-05    56   0.368E-02
  60 F= -.11615022E+03 E0= -.11615022E+03  d E =-.205433E-02
       N       E                     dE             d eps       ncg     rms          rms(c)
DAV:   1    -0.115901552842E+03    0.77155E-03   -0.46670E-02    70   0.116E+00    0.478E-02
RMM:   2    -0.115901592464E+03   -0.39622E-04   -0.69343E-04    70   0.136E-01    0.288E-02
RMM:   3    -0.115901606923E+03   -0.14459E-04   -0.10242E-04    64   0.565E-02    0.119E-02
RMM:   4    -0.115901613636E+03   -0.67139E-05   -0.24351E-05    52   0.261E-02
  61 F= -.11614952E+03 E0= -.11614952E+03  d E =0.694070E-03
       N       E                     dE             d eps       ncg     rms          rms(c)
DAV:   1    -0.115902157595E+03   -0.55067E-03   -0.28757E-02    70   0.914E-01    0.374E-02
RMM:   2    -0.115902180731E+03   -0.23135E-04   -0.41143E-04    70   0.106E-01    0.214E-02
RMM:   3    -0.115902189099E+03   -0.83685E-05   -0.63201E-05    61   0.448E-02
  62 F= -.11615009E+03 E0= -.11615009E+03  d E =-.562443E-03
       N       E                     dE             d eps       ncg     rms          rms(c)
DAV:   1    -0.115903327405E+03   -0.11467E-02   -0.17169E-01    70   0.224E+00    0.914E-02
RMM:   2    -0.115903469665E+03   -0.14226E-03   -0.25490E-03    70   0.264E-01    0.547E-02
RMM:   3    -0.115903520578E+03   -0.50913E-04   -0.40480E-04    70   0.113E-01    0.204E-02
RMM:   4    -0.115903534851E+03   -0.14273E-04   -0.10115E-04    66   0.533E-02    0.806E-03
RMM:   5    -0.115903537835E+03   -0.29838E-05   -0.23594E-05    50   0.248E-02
  63 F= -.11615141E+03 E0= -.11615141E+03  d E =-.132436E-02
       N       E                     dE             d eps       ncg     rms          rms(c)
DAV:   1    -0.115903394072E+03    0.14078E-03   -0.26567E-03    70   0.284E-01    0.161E-02
RMM:   2    -0.115903395173E+03   -0.11005E-05   -0.49977E-05    56   0.360E-02
  64 F= -.11615126E+03 E0= -.11615126E+03  d E =0.146565E-03
       N       E                     dE             d eps       ncg     rms          rms(c)
DAV:   1    -0.115903645145E+03   -0.25107E-03   -0.66967E-03    73   0.443E-01    0.160E-02
RMM:   2    -0.115903652375E+03   -0.72301E-05   -0.97214E-05    65   0.515E-02
  65 F= -.11615152E+03 E0= -.11615152E+03  d E =-.255564E-03
       N       E                     dE             d eps       ncg     rms          rms(c)
DAV:   1    -0.115903913847E+03   -0.26870E-03   -0.78600E-03    70   0.482E-01    0.227E-02
RMM:   2    -0.115903918874E+03   -0.50266E-05   -0.12734E-04    66   0.586E-02    0.141E-02
RMM:   3    -0.115903922414E+03   -0.35402E-05   -0.21519E-05    49   0.258E-02
  66 F= -.11615178E+03 E0= -.11615178E+03  d E =-.264116E-03
       N       E                     dE             d eps       ncg     rms          rms(c)
DAV:   1    -0.115905432307E+03   -0.15134E-02   -0.53905E-01    70   0.397E+00    0.163E-01
RMM:   2    -0.115905897291E+03   -0.46498E-03   -0.79443E-03    70   0.465E-01    0.954E-02
RMM:   3    -0.115906036373E+03   -0.13908E-03   -0.12389E-03    70   0.198E-01    0.371E-02
RMM:   4    -0.115906082584E+03   -0.46211E-04   -0.30650E-04    72   0.931E-02    0.145E-02
RMM:   5    -0.115906092430E+03   -0.98461E-05   -0.78290E-05    59   0.438E-02
  67 F= -.11615391E+03 E0= -.11615391E+03  d E =-.212921E-02
       N       E                     dE             d eps       ncg     rms          rms(c)
DAV:   1    -0.115905258999E+03    0.82359E-03   -0.64765E-02    70   0.138E+00    0.574E-02
RMM:   2    -0.115905315349E+03   -0.56350E-04   -0.92727E-04    70   0.158E-01    0.334E-02
RMM:   3    -0.115905337333E+03   -0.21985E-04   -0.13779E-04    68   0.660E-02    0.127E-02
RMM:   4    -0.115905345473E+03   -0.81395E-05   -0.32127E-05    55   0.302E-02
  68 F= -.11615318E+03 E0= -.11615318E+03  d E =0.729305E-03
       N       E                     dE             d eps       ncg     rms          rms(c)
DAV:   1    -0.115905865354E+03   -0.52802E-03   -0.36591E-02    70   0.103E+00    0.427E-02
RMM:   2    -0.115905895072E+03   -0.29717E-04   -0.52535E-04    70   0.120E-01    0.244E-02
RMM:   3    -0.115905905736E+03   -0.10664E-04   -0.80049E-05    62   0.505E-02    0.947E-03
RMM:   4    -0.115905909165E+03   -0.34293E-05   -0.18256E-05    47   0.230E-02
  69 F= -.11615373E+03 E0= -.11615373E+03  d E =-.550850E-03
       N       E                     dE             d eps       ncg     rms          rms(c)
DAV:   1    -0.115906493249E+03   -0.58751E-03   -0.55866E-02    70   0.128E+00    0.525E-02
RMM:   2    -0.115906537741E+03   -0.44492E-04   -0.82916E-04    70   0.150E-01    0.311E-02
RMM:   3    -0.115906553714E+03   -0.15973E-04   -0.12957E-04    68   0.640E-02    0.121E-02
RMM:   4    -0.115906558340E+03   -0.46262E-05   -0.31028E-05    56   0.298E-02
  70 F= -.11615437E+03 E0= -.11615437E+03  d E =-.640755E-03
       N       E                     dE             d eps       ncg     rms          rms(c)
DAV:   1    -0.115907128594E+03   -0.57488E-03   -0.50624E-02    70   0.121E+00    0.493E-02
RMM:   2    -0.115907169799E+03   -0.41205E-04   -0.76607E-04    70   0.144E-01    0.294E-02
RMM:   3    -0.115907185091E+03   -0.15292E-04   -0.12119E-04    66   0.615E-02    0.117E-02
RMM:   4    -0.115907189775E+03   -0.46839E-05   -0.29687E-05    55   0.284E-02
  71 F= -.11615499E+03 E0= -.11615499E+03  d E =-.615655E-03
       N       E                     dE             d eps       ncg     rms          rms(c)
DAV:   1    -0.115908026439E+03   -0.84135E-03   -0.14438E-01    70   0.205E+00    0.844E-02
RMM:   2    -0.115908145156E+03   -0.11872E-03   -0.21584E-03    70   0.241E-01    0.496E-02
RMM:   3    -0.115908187387E+03   -0.42231E-04   -0.33651E-04    70   0.103E-01    0.201E-02
RMM:   4    -0.115908200816E+03   -0.13429E-04   -0.84711E-05    63   0.482E-02    0.804E-03
RMM:   5    -0.115908203914E+03   -0.30977E-05   -0.18735E-05    50   0.216E-02
  72 F= -.11615598E+03 E0= -.11615598E+03  d E =-.990871E-03
       N       E                     dE             d eps       ncg     rms          rms(c)
DAV:   1    -0.115907795404E+03    0.40541E-03   -0.20573E-02    70   0.776E-01    0.329E-02
RMM:   2    -0.115907813799E+03   -0.18394E-04   -0.30517E-04    70   0.903E-02    0.192E-02
RMM:   3    -0.115907821256E+03   -0.74575E-05   -0.45026E-05    56   0.375E-02
  73 F= -.11615561E+03 E0= -.11615561E+03  d E =0.369845E-03
       N       E                     dE             d eps       ncg     rms          rms(c)
DAV:   1    -0.115907906985E+03   -0.93186E-04   -0.10374E-03    78   0.173E-01    0.824E-03
RMM:   2    -0.115907908418E+03   -0.14327E-05   -0.13588E-05    47   0.187E-02
  74 F= -.11615570E+03 E0= -.11615570E+03  d E =-.844410E-04
       N       E                     dE             d eps       ncg     rms          rms(c)
DAV:   1    -0.115907210283E+03    0.69670E-03   -0.46920E+00    70   0.117E+01    0.496E-01
RMM:   2    -0.115911859979E+03   -0.46497E-02   -0.70266E-02    70   0.138E+00    0.280E-01
RMM:   3    -0.115912697754E+03   -0.83778E-03   -0.10876E-02    70   0.586E-01    0.121E-01
RMM:   4    -0.115913039232E+03   -0.34148E-03   -0.26163E-03    71   0.275E-01    0.481E-02
RMM:   5    -0.115913130774E+03   -0.91542E-04   -0.75176E-04    79   0.131E-01    0.215E-02
RMM:   6    -0.115913146368E+03   -0.15594E-04   -0.83411E-05    61   0.545E-02    0.772E-03
RMM:   7    -0.115913159840E+03   -0.13472E-04   -0.25953E-05    49   0.274E-02    0.725E-03
RMM:   8    -0.115913180532E+03   -0.20691E-04   -0.67442E-06    45   0.133E-02    0.603E-03
RMM:   9    -0.115913182213E+03   -0.16813E-05   -0.18801E-06    44   0.758E-03
  75 F= -.11616085E+03 E0= -.11616085E+03  d E =-.515186E-02
       N       E                     dE             d eps       ncg     rms          rms(c)
DAV:   1    -0.115911134279E+03    0.20463E-02   -0.42305E-01    70   0.351E+00    0.143E-01
RMM:   2    -0.115911508657E+03   -0.37438E-03   -0.62021E-03    70   0.409E-01    0.840E-02
RMM:   3    -0.115911625666E+03   -0.11701E-03   -0.95879E-04    70   0.174E-01    0.323E-02
RMM:   4    -0.115911665898E+03   -0.40232E-04   -0.22810E-04    71   0.812E-02    0.130E-02
RMM:   5    -0.115911675534E+03   -0.96360E-05   -0.64319E-05    59   0.387E-02
  76 F= -.11615939E+03 E0= -.11615939E+03  d E =0.146246E-02
       N       E                     dE             d eps       ncg     rms          rms(c)
DAV:   1    -0.115912432372E+03   -0.76647E-03   -0.16409E-01    70   0.218E+00    0.900E-02
RMM:   2    -0.115912570240E+03   -0.13787E-03   -0.23774E-03    70   0.252E-01    0.522E-02
RMM:   3    -0.115912621160E+03   -0.50920E-04   -0.36051E-04    70   0.106E-01    0.203E-02
RMM:   4    -0.115912636343E+03   -0.15183E-04   -0.84719E-05    63   0.491E-02    0.815E-03
RMM:   5    -0.115912638635E+03   -0.22918E-05   -0.20515E-05    50   0.223E-02
  77 F= -.11616032E+03 E0= -.11616032E+03  d E =-.938599E-03
       N       E                     dE             d eps       ncg     rms          rms(c)
DAV:   1    -0.115913270452E+03   -0.63411E-03   -0.11950E-01    70   0.187E+00    0.763E-02
RMM:   2    -0.115913367219E+03   -0.96767E-04   -0.17801E-03    70   0.219E-01    0.445E-02
RMM:   3    -0.115913403245E+03   -0.36026E-04   -0.28226E-04    70   0.943E-02    0.175E-02
RMM:   4    -0.115913413998E+03   -0.10753E-04   -0.70236E-05    61   0.445E-02    0.695E-03
RMM:   5    -0.115913415914E+03   -0.19164E-05   -0.15689E-05    47   0.205E-02
  78 F= -.11616108E+03 E0= -.11616108E+03  d E =-.759599E-03
       N       E                     dE             d eps       ncg     rms          rms(c)
DAV:   1    -0.115913345902E+03    0.68095E-04   -0.94520E-04    78   0.169E-01    0.859E-03
RMM:   2    -0.115913346932E+03   -0.10292E-05   -0.15020E-05    47   0.199E-02
  79 F= -.11616101E+03 E0= -.11616101E+03  d E =0.700080E-04
       N       E                     dE             d eps       ncg     rms          rms(c)
DAV:   1    -0.115913483855E+03   -0.13795E-03   -0.42693E-03    73   0.352E-01    0.128E-02
RMM:   2    -0.115913488328E+03   -0.44728E-05   -0.61521E-05    57   0.407E-02
  80 F= -.11616115E+03 E0= -.11616115E+03  d E =-.139656E-03
       N       E                     dE             d eps       ncg     rms          rms(c)
DAV:   1    -0.115913646806E+03   -0.16295E-03   -0.60985E-03    70   0.424E-01    0.195E-02
RMM:   2    -0.115913650637E+03   -0.38314E-05   -0.98293E-05    64   0.512E-02
  81 F= -.11616131E+03 E0= -.11616131E+03  d E =-.158221E-03
       N       E                     dE             d eps       ncg     rms          rms(c)
DAV:   1    -0.115914427640E+03   -0.78083E-03   -0.32126E-01    70   0.306E+00    0.126E-01
RMM:   2    -0.115914698153E+03   -0.27051E-03   -0.47846E-03    70   0.358E-01    0.747E-02
RMM:   3    -0.115914785790E+03   -0.87637E-04   -0.74943E-04    70   0.154E-01    0.285E-02
RMM:   4    -0.115914814774E+03   -0.28983E-04   -0.18372E-04    72   0.718E-02    0.113E-02
RMM:   5    -0.115914820363E+03   -0.55893E-05   -0.44034E-05    54   0.337E-02
  82 F= -.11616246E+03 E0= -.11616246E+03  d E =-.114504E-02
       N       E                     dE             d eps       ncg     rms          rms(c)
DAV:   1    -0.115914445762E+03    0.36901E-03   -0.28449E-02    70   0.909E-01    0.367E-02
RMM:   2    -0.115914470470E+03   -0.24708E-04   -0.40979E-04    70   0.104E-01    0.219E-02
RMM:   3    -0.115914482124E+03   -0.11654E-04   -0.60551E-05    59   0.436E-02    0.817E-03
RMM:   4    -0.115914486624E+03   -0.45002E-05   -0.12955E-05    46   0.193E-02
  83 F= -.11616213E+03 E0= -.11616213E+03  d E =0.326374E-03
       N       E                     dE             d eps       ncg     rms          rms(c)
DAV:   1    -0.115914759705E+03   -0.27758E-03   -0.20248E-02    70   0.766E-01    0.311E-02
RMM:   2    -0.115914776124E+03   -0.16420E-04   -0.29324E-04    70   0.889E-02    0.180E-02
RMM:   3    -0.115914782995E+03   -0.68705E-05   -0.45355E-05    56   0.377E-02
  84 F= -.11616242E+03 E0= -.11616242E+03  d E =-.289091E-03
       N       E                     dE             d eps       ncg     rms          rms(c)
DAV:   1    -0.115915157896E+03   -0.38177E-03   -0.45256E-02    70   0.115E+00    0.468E-02
RMM:   2    -0.115915194722E+03   -0.36826E-04   -0.68891E-04    70   0.137E-01    0.281E-02
RMM:   3    -0.115915210291E+03   -0.15569E-04   -0.11129E-04    65   0.591E-02    0.110E-02
RMM:   4    -0.115915214452E+03   -0.41611E-05   -0.28020E-05    54   0.276E-02
  85 F= -.11616284E+03 E0= -.11616284E+03  d E =-.423447E-03
       N       E                     dE             d eps       ncg     rms          rms(c)
DAV:   1    -0.115915782758E+03   -0.57247E-03   -0.13606E-01    70   0.199E+00    0.808E-02
RMM:   2    -0.115915897514E+03   -0.11476E-03   -0.20369E-03    70   0.234E-01    0.474E-02
RMM:   3    -0.115915936621E+03   -0.39107E-04   -0.31770E-04    70   0.998E-02    0.190E-02
RMM:   4    -0.115915948965E+03   -0.12344E-04   -0.79174E-05    62   0.466E-02    0.760E-03
RMM:   5    -0.115915951573E+03   -0.26077E-05   -0.17181E-05    48   0.209E-02
  86 F= -.11616356E+03 E0= -.11616356E+03  d E =-.717521E-03
       N       E                     dE             d eps       ncg     rms          rms(c)
DAV:   1    -0.115915798634E+03    0.15033E-03   -0.59549E-03    70   0.421E-01    0.192E-02
RMM:   2    -0.115915804896E+03   -0.62621E-05   -0.93614E-05    63   0.498E-02
  87 F= -.11616342E+03 E0= -.11616342E+03  d E =0.142131E-03
       N       E                     dE             d eps       ncg     rms          rms(c)
DAV:   1    -0.115916071313E+03   -0.27268E-03   -0.20960E-02    70   0.779E-01    0.301E-02
RMM:   2    -0.115916091737E+03   -0.20424E-04   -0.29792E-04    70   0.898E-02    0.163E-02
RMM:   3    -0.115916097659E+03   -0.59225E-05   -0.46203E-05    56   0.374E-02
  88 F= -.11616370E+03 E0= -.11616370E+03  d E =-.286175E-03
       N       E                     dE             d eps       ncg     rms          rms(c)
DAV:   1    -0.115916201273E+03   -0.10954E-03   -0.27232E-03    70   0.282E-01    0.123E-02
RMM:   2    -0.115916203669E+03   -0.23956E-05   -0.46579E-05    56   0.355E-02
  89 F= -.11616381E+03 E0= -.11616381E+03  d E =-.101809E-03
       N       E                     dE             d eps       ncg     rms          rms(c)
DAV:   1    -0.115916524742E+03   -0.32347E-03   -0.33346E-02    70   0.987E-01    0.414E-02
RMM:   2    -0.115916550059E+03   -0.25317E-04   -0.50706E-04    70   0.116E-01    0.250E-02
RMM:   3    -0.115916561428E+03   -0.11368E-04   -0.80225E-05    61   0.501E-02    0.932E-03
RMM:   4    -0.115916564577E+03   -0.31495E-05   -0.18447E-05    48   0.226E-02
  90 F= -.11616416E+03 E0= -.11616416E+03  d E =-.352953E-03
       N       E                     dE             d eps       ncg     rms          rms(c)
DAV:   1    -0.115916520302E+03    0.41126E-04   -0.82377E-04    73   0.157E-01    0.811E-03
RMM:   2    -0.115916521443E+03   -0.11414E-05   -0.16463E-05    47   0.207E-02
  91 F= -.11616412E+03 E0= -.11616412E+03  d E =0.430936E-04
       N       E                     dE             d eps       ncg     rms          rms(c)
DAV:   1    -0.115907634222E+03    0.88861E-02   -0.11161E+01    70   0.180E+01    0.784E-01
RMM:   2    -0.115919537047E+03   -0.11903E-01   -0.17135E-01    70   0.214E+00    0.428E-01
RMM:   3    -0.115921379522E+03   -0.18425E-02   -0.26350E-02    70   0.909E-01    0.203E-01
RMM:   4    -0.115922116985E+03   -0.73746E-03   -0.63480E-03    71   0.429E-01    0.788E-02
RMM:   5    -0.115922338423E+03   -0.22144E-03   -0.18033E-03    79   0.205E-01    0.367E-02
RMM:   6    -0.115922376873E+03   -0.38450E-04   -0.20872E-04    71   0.858E-02    0.117E-02
RMM:   7    -0.115922403847E+03   -0.26974E-04   -0.64666E-05    53   0.423E-02    0.116E-02
RMM:   8    -0.115922443704E+03   -0.39858E-04   -0.14966E-05    46   0.191E-02    0.101E-02
RMM:   9    -0.115922448759E+03   -0.50543E-05   -0.35061E-06    45   0.101E-02
  92 F= -.11616986E+03 E0= -.11616986E+03  d E =-.574343E-02
       N       E                     dE             d eps       ncg     rms          rms(c)
DAV:   1    -0.115903587334E+03    0.18856E-01   -0.10341E+01    70   0.173E+01    0.709E-01
RMM:   2    -0.115914129329E+03   -0.10542E-01   -0.15394E-01    70   0.203E+00    0.412E-01
RMM:   3    -0.115915771448E+03   -0.16421E-02   -0.23538E-02    70   0.863E-01    0.169E-01
RMM:   4    -0.115916454340E+03   -0.68289E-03   -0.56555E-03    71   0.405E-01    0.624E-02
RMM:   5    -0.115916642748E+03   -0.18841E-03   -0.16239E-03    79   0.192E-01    0.256E-02
RMM:   6    -0.115916670275E+03   -0.27527E-04   -0.18089E-04    69   0.797E-02    0.103E-02
RMM:   7    -0.115916691769E+03   -0.21495E-04   -0.55005E-05    53   0.394E-02    0.870E-03
RMM:   8    -0.115916714856E+03   -0.23087E-04   -0.11758E-05    46   0.174E-02    0.272E-03
RMM:   9    -0.115916723241E+03   -0.83854E-05   -0.25338E-06    45   0.843E-03
  93 F= -.11616431E+03 E0= -.11616431E+03  d E =0.554826E-02
       N       E                     dE             d eps       ncg     rms          rms(c)
DAV:   1    -0.115916915959E+03   -0.20110E-03   -0.78512E-03    89   0.476E-01    0.192E-02
RMM:   2    -0.115916927611E+03   -0.11652E-04   -0.11602E-04    64   0.556E-02    0.116E-02
RMM:   3    -0.115916936109E+03   -0.84973E-05   -0.17937E-05    48   0.235E-02
  94 F= -.11616452E+03 E0= -.11616452E+03  d E =-.209277E-03
       N       E                     dE             d eps       ncg     rms          rms(c)
DAV:   1    -0.115917103417E+03   -0.17581E-03   -0.79579E-03    73   0.482E-01    0.200E-02
RMM:   2    -0.115917112347E+03   -0.89296E-05   -0.12574E-04    66   0.582E-02    0.120E-02
RMM:   3    -0.115917117679E+03   -0.53323E-05   -0.20952E-05    49   0.251E-02
  95 F= -.11616470E+03 E0= -.11616470E+03  d E =-.175616E-03
       N       E                     dE             d eps       ncg     rms          rms(c)
DAV:   1    -0.115916408092E+03    0.70425E-03   -0.29989E+00    70   0.934E+00    0.389E-01
RMM:   2    -0.115919346242E+03   -0.29381E-02   -0.44990E-02    70   0.110E+00    0.222E-01
RMM:   3    -0.115919945485E+03   -0.59924E-03   -0.69690E-03    70   0.468E-01    0.942E-02
RMM:   4    -0.115920176077E+03   -0.23059E-03   -0.16711E-03    71   0.220E-01    0.368E-02
RMM:   5    -0.115920232303E+03   -0.56226E-04   -0.48379E-04    79   0.105E-01    0.149E-02
RMM:   6    -0.115920241132E+03   -0.88285E-05   -0.54099E-05    55   0.436E-02
  96 F= -.11616773E+03 E0= -.11616773E+03  d E =-.303328E-02
       N       E                     dE             d eps       ncg     rms          rms(c)
DAV:   1    -0.115919902298E+03    0.33001E-03   -0.27801E-02    70   0.897E-01    0.384E-02
RMM:   2    -0.115919933278E+03   -0.30980E-04   -0.39701E-04    70   0.103E-01    0.220E-02
RMM:   3    -0.115919951087E+03   -0.17809E-04   -0.59825E-05    58   0.432E-02    0.778E-03
RMM:   4    -0.115919959852E+03   -0.87652E-05   -0.13328E-05    46   0.195E-02
  97 F= -.11616746E+03 E0= -.11616746E+03  d E =0.269452E-03
       N       E                     dE             d eps       ncg     rms          rms(c)
DAV:   1    -0.115920196180E+03   -0.24509E-03   -0.23734E-02    70   0.829E-01    0.340E-02
RMM:   2    -0.115920217099E+03   -0.20919E-04   -0.34485E-04    70   0.962E-02    0.194E-02
RMM:   3    -0.115920225827E+03   -0.87282E-05   -0.53131E-05    58   0.408E-02
  98 F= -.11616772E+03 E0= -.11616772E+03  d E =-.257469E-03
       N       E                     dE             d eps       ncg     rms          rms(c)
DAV:   1    -0.115920560601E+03   -0.34350E-03   -0.80398E-02    70   0.153E+00    0.618E-02
RMM:   2    -0.115920631248E+03   -0.70647E-04   -0.12230E-03    70   0.181E-01    0.369E-02
RMM:   3    -0.115920655792E+03   -0.24544E-04   -0.19543E-04    70   0.782E-02    0.146E-02
RMM:   4    -0.115920663885E+03   -0.80925E-05   -0.49860E-05    56   0.372E-02
  99 F= -.11616814E+03 E0= -.11616814E+03  d E =-.427440E-03
       N       E                     dE             d eps       ncg     rms          rms(c)
DAV:   1    -0.115920451867E+03    0.20392E-03   -0.13680E-02    70   0.631E-01    0.259E-02
RMM:   2    -0.115920464167E+03   -0.12300E-04   -0.19199E-04    68   0.722E-02    0.150E-02
RMM:   3    -0.115920469720E+03   -0.55530E-05   -0.28871E-05    51   0.303E-02
 100 F= -.11616795E+03 E0= -.11616795E+03  d E =0.190317E-03
       N       E                     dE             d eps       ncg     rms          rms(c)
DAV:   1    -0.115920628903E+03   -0.16474E-03   -0.14263E-02    70   0.641E-01    0.260E-02
RMM:   2    -0.115920641056E+03   -0.12153E-04   -0.20273E-04    69   0.729E-02    0.146E-02
RMM:   3    -0.115920645332E+03   -0.42767E-05   -0.29849E-05    53   0.304E-02
 101 F= -.11616813E+03 E0= -.11616813E+03  d E =-.171087E-03
       N       E                     dE             d eps       ncg     rms          rms(c)
DAV:   1    -0.115920984849E+03   -0.34379E-03   -0.35272E-01    70   0.319E+00    0.129E-01
RMM:   2    -0.115921299737E+03   -0.31489E-03   -0.52917E-03    70   0.375E-01    0.758E-02
RMM:   3    -0.115921396255E+03   -0.96518E-04   -0.82432E-04    70   0.161E-01    0.304E-02
RMM:   4    -0.115921424803E+03   -0.28548E-04   -0.20327E-04    72   0.754E-02    0.117E-02
RMM:   5    -0.115921430653E+03   -0.58502E-05   -0.49580E-05    55   0.354E-02
 102 F= -.11616889E+03 E0= -.11616889E+03  d E =-.766939E-03
       N       E                     dE             d eps       ncg     rms          rms(c)
DAV:   1    -0.115920311956E+03    0.11128E-02   -0.29581E-01    70   0.292E+00    0.117E-01
RMM:   2    -0.115920575128E+03   -0.26317E-03   -0.43136E-03    70   0.338E-01    0.688E-02
RMM:   3    -0.115920662117E+03   -0.86989E-04   -0.65350E-04    70   0.143E-01    0.263E-02
RMM:   4    -0.115920687444E+03   -0.25327E-04   -0.15277E-04    71   0.663E-02    0.996E-03
RMM:   5    -0.115920693135E+03   -0.56906E-05   -0.39660E-05    54   0.313E-02
 103 F= -.11616817E+03 E0= -.11616817E+03  d E =0.717998E-03
       N       E                     dE             d eps       ncg     rms          rms(c)
DAV:   1    -0.115920744351E+03   -0.56907E-04   -0.30787E-03    78   0.296E-01    0.137E-02
RMM:   2    -0.115920746951E+03   -0.26006E-05   -0.46247E-05    54   0.339E-02
 104 F= -.11616822E+03 E0= -.11616822E+03  d E =-.503798E-04
       N       E                     dE             d eps       ncg     rms          rms(c)
DAV:   1    -0.115920776534E+03   -0.32183E-04   -0.14507E-03    73   0.207E-01    0.110E-02
RMM:   2    -0.115920777870E+03   -0.13359E-05   -0.28703E-05    48   0.271E-02
 105 F= -.11616826E+03 E0= -.11616826E+03  d E =-.328557E-04
       N       E                     dE             d eps       ncg     rms          rms(c)
DAV:   1    -0.115920772524E+03    0.40099E-05   -0.25238E-05    73   0.276E-02    0.282E-03
RMM:   2    -0.115920772848E+03   -0.32377E-06   -0.98001E-07    34   0.622E-03
 106 F= -.11616825E+03 E0= -.11616825E+03  d E =0.485423E-05
       N       E                     dE             d eps       ncg     rms          rms(c)
DAV:   1    -0.115920863375E+03   -0.90851E-04   -0.54307E-03    70   0.404E-01    0.170E-02
RMM:   2    -0.115920867457E+03   -0.40818E-05   -0.77376E-05    64   0.470E-02
 107 F= -.11616835E+03 E0= -.11616835E+03  d E =-.940433E-04
       N       E                     dE             d eps       ncg     rms          rms(c)
DAV:   1    -0.115920939151E+03   -0.75776E-04   -0.29976E-03    73   0.305E-01    0.156E-02
RMM:   2    -0.115920940467E+03   -0.13158E-05   -0.46089E-05    56   0.368E-02
 108 F= -.11616842E+03 E0= -.11616842E+03  d E =-.724915E-04
       N       E                     dE             d eps       ncg     rms          rms(c)
DAV:   1    -0.115921141862E+03   -0.20271E-03   -0.37842E-02    70   0.107E+00    0.466E-02
RMM:   2    -0.115921166619E+03   -0.24757E-04   -0.51992E-04    70   0.124E-01    0.284E-02
RMM:   3    -0.115921176555E+03   -0.99352E-05   -0.89113E-05    69   0.540E-02
 109 F= -.11616865E+03 E0= -.11616865E+03  d E =-.235526E-03
       N       E                     dE             d eps       ncg     rms          rms(c)
DAV:   1    -0.115879702143E+03    0.41464E-01   -0.24440E+01    70   0.272E+01    0.121E+00
RMM:   2    -0.115901679143E+03   -0.21977E-01   -0.34464E-01    70   0.319E+00    0.687E-01
RMM:   3    -0.115904232426E+03   -0.25533E-02   -0.55782E-02    70   0.136E+00    0.288E-01
RMM:   4    -0.115905749581E+03   -0.15172E-02   -0.14304E-02    73   0.643E-01    0.117E-01
RMM:   5    -0.115906116521E+03   -0.36694E-03   -0.32988E-03    77   0.294E-01    0.554E-02
RMM:   6    -0.115906197665E+03   -0.81144E-04   -0.47887E-04    74   0.130E-01    0.180E-02
RMM:   7    -0.115906246936E+03   -0.49271E-04   -0.14400E-04    72   0.656E-02    0.205E-02
RMM:   8    -0.115906297615E+03   -0.50679E-04   -0.30997E-05    50   0.280E-02    0.483E-03
RMM:   9    -0.115906319840E+03   -0.22226E-04   -0.49720E-06    45   0.113E-02    0.543E-03
RMM:  10    -0.115906396403E+03   -0.76563E-04   -0.10878E-05    46   0.119E-02    0.735E-03
RMM:  11    -0.115906396950E+03   -0.54655E-06   -0.18437E-06    43   0.573E-03
 110 F= -.11615391E+03 E0= -.11615391E+03  d E =0.147482E-01
       N       E                     dE             d eps       ncg     rms          rms(c)
DAV:   1    -0.115909060569E+03   -0.26642E-02   -0.19291E-01    70   0.248E+00    0.121E-01
RMM:   2    -0.115909218816E+03   -0.15825E-03   -0.37382E-03    70   0.330E-01    0.728E-02
RMM:   3    -0.115909226264E+03   -0.74482E-05   -0.58670E-04    70   0.139E-01    0.335E-02
RMM:   4    -0.115909256248E+03   -0.29984E-04   -0.22363E-04    71   0.779E-02    0.127E-02
RMM:   5    -0.115909261044E+03   -0.47956E-05   -0.37635E-05    53   0.317E-02
 111 F= -.11615680E+03 E0= -.11615680E+03  d E =-.289149E-02
       N       E                     dE             d eps       ncg     rms          rms(c)
DAV:   1    -0.115909936658E+03   -0.68041E-03   -0.15690E-02    81   0.694E-01    0.533E-02
RMM:   2    -0.115909950715E+03   -0.14056E-04   -0.50015E-04    70   0.112E-01    0.279E-02
RMM:   3    -0.115909945670E+03    0.50452E-05   -0.73723E-05    58   0.475E-02
 112 F= -.11615750E+03 E0= -.11615750E+03  d E =-.699456E-03
       N       E                     dE             d eps       ncg     rms          rms(c)
DAV:   1    -0.115910707930E+03   -0.75721E-03   -0.13644E-02    76   0.681E-01    0.310E-02
RMM:   2    -0.115910713996E+03   -0.60666E-05   -0.20099E-04    70   0.796E-02    0.175E-02
RMM:   3    -0.115910719105E+03   -0.51092E-05   -0.39382E-05    55   0.347E-02
 113 F= -.11615829E+03 E0= -.11615829E+03  d E =-.796938E-03
       N       E                     dE             d eps       ncg     rms          rms(c)
DAV:   1    -0.115911698953E+03   -0.98496E-03   -0.35836E-02    70   0.110E+00    0.540E-02
RMM:   2    -0.115911712585E+03   -0.13633E-04   -0.54227E-04    70   0.130E-01    0.293E-02
RMM:   3    -0.115911724276E+03   -0.11690E-04   -0.10162E-04    70   0.564E-02    0.142E-02
RMM:   4    -0.115911729296E+03   -0.50201E-05   -0.28402E-05    50   0.283E-02
 114 F= -.11615934E+03 E0= -.11615934E+03  d E =-.104544E-02
       N       E                     dE             d eps       ncg     rms          rms(c)
DAV:   1    -0.115912544462E+03   -0.82019E-03   -0.50917E-02    70   0.130E+00    0.626E-02
RMM:   2    -0.115912570685E+03   -0.26223E-04   -0.75440E-04    70   0.151E-01    0.336E-02
RMM:   3    -0.115912586504E+03   -0.15819E-04   -0.13517E-04    70   0.648E-02    0.148E-02
RMM:   4    -0.115912593377E+03   -0.68732E-05   -0.38923E-05    55   0.319E-02
 115 F= -.11616025E+03 E0= -.11616025E+03  d E =-.908826E-03
       N       E                     dE             d eps       ncg     rms          rms(c)
DAV:   1    -0.115913092905E+03   -0.50640E-03   -0.30032E-02    76   0.982E-01    0.447E-02
RMM:   2    -0.115913111658E+03   -0.18753E-04   -0.42466E-04    70   0.112E-01    0.247E-02
RMM:   3    -0.115913121925E+03   -0.10267E-04   -0.73518E-05    64   0.480E-02    0.111E-02
RMM:   4    -0.115913125531E+03   -0.36060E-05   -0.18334E-05    47   0.227E-02
 116 F= -.11616081E+03 E0= -.11616081E+03  d E =-.560090E-03
       N       E                     dE             d eps       ncg     rms          rms(c)
DAV:   1    -0.115913380630E+03   -0.25870E-03   -0.84659E-03    76   0.518E-01    0.240E-02
RMM:   2    -0.115913387595E+03   -0.69650E-05   -0.13599E-04    68   0.631E-02    0.137E-02
RMM:   3    -0.115913389837E+03   -0.22426E-05   -0.21763E-05    50   0.263E-02
 117 F= -.11616108E+03 E0= -.11616108E+03  d E =-.271333E-03
       N       E                     dE             d eps       ncg     rms          rms(c)
DAV:   1    -0.115913720843E+03   -0.33325E-03   -0.17302E-02    70   0.733E-01    0.321E-02
RMM:   2    -0.115913734563E+03   -0.13720E-04   -0.26031E-04    70   0.877E-02    0.188E-02
RMM:   3    -0.115913739753E+03   -0.51900E-05   -0.42649E-05    57   0.373E-02
 118 F= -.11616144E+03 E0= -.11616144E+03  d E =-.358773E-03
       N       E                     dE             d eps       ncg     rms          rms(c)
DAV:   1    -0.115914041760E+03   -0.30720E-03   -0.15373E-02    70   0.682E-01    0.293E-02
RMM:   2    -0.115914054026E+03   -0.12265E-04   -0.23143E-04    70   0.819E-02    0.179E-02
RMM:   3    -0.115914059313E+03   -0.52873E-05   -0.39302E-05    57   0.355E-02
 119 F= -.11616176E+03 E0= -.11616176E+03  d E =-.323941E-03
       N       E                     dE             d eps       ncg     rms          rms(c)
DAV:   1    -0.115914264114E+03   -0.21009E-03   -0.65329E-03    76   0.444E-01    0.191E-02
RMM:   2    -0.115914269758E+03   -0.56442E-05   -0.10249E-04    66   0.547E-02    0.119E-02
RMM:   3    -0.115914272407E+03   -0.26489E-05   -0.18218E-05    48   0.238E-02
 120 F= -.11616197E+03 E0= -.11616197E+03  d E =-.212279E-03
       N       E                     dE             d eps       ncg     rms          rms(c)
DAV:   1    -0.115914717702E+03   -0.44794E-03   -0.38733E-02    70   0.108E+00    0.444E-02
RMM:   2    -0.115914748157E+03   -0.30455E-04   -0.55931E-04    70   0.127E-01    0.270E-02
RMM:   3    -0.115914758965E+03   -0.10808E-04   -0.90861E-05    67   0.545E-02    0.896E-03
RMM:   4    -0.115914762251E+03   -0.32867E-05   -0.22309E-05    48   0.255E-02
 121 F= -.11616246E+03 E0= -.11616246E+03  d E =-.488594E-03
       N       E                     dE             d eps       ncg     rms          rms(c)
DAV:   1    -0.115915028737E+03   -0.26977E-03   -0.10370E-02    70   0.558E-01    0.232E-02
RMM:   2    -0.115915037155E+03   -0.84178E-05   -0.15372E-04    68   0.661E-02    0.141E-02
RMM:   3    -0.115915040448E+03   -0.32931E-05   -0.25023E-05    51   0.282E-02
 122 F= -.11616273E+03 E0= -.11616273E+03  d E =-.271023E-03
       N       E                     dE             d eps       ncg     rms          rms(c)
DAV:   1    -0.115915413828E+03   -0.37667E-03   -0.24646E-02    70   0.857E-01    0.350E-02
RMM:   2    -0.115915433263E+03   -0.19436E-04   -0.35977E-04    70   0.101E-01    0.216E-02
RMM:   3    -0.115915440835E+03   -0.75718E-05   -0.59107E-05    59   0.437E-02
 123 F= -.11616313E+03 E0= -.11616313E+03  d E =-.392081E-03
       N       E                     dE             d eps       ncg     rms          rms(c)
DAV:   1    -0.115916076691E+03   -0.64343E-03   -0.75725E-02    70   0.150E+00    0.617E-02
RMM:   2    -0.115916136641E+03   -0.59949E-04   -0.10973E-03    70   0.177E-01    0.375E-02
RMM:   3    -0.115916159133E+03   -0.22493E-04   -0.17882E-04    70   0.763E-02    0.122E-02
RMM:   4    -0.115916165474E+03   -0.63401E-05   -0.44967E-05    57   0.357E-02
 124 F= -.11616383E+03 E0= -.11616383E+03  d E =-.702108E-03
       N       E                     dE             d eps       ncg     rms          rms(c)
DAV:   1    -0.115916279361E+03   -0.12023E-03   -0.14302E-03    73   0.211E-01    0.100E-02
RMM:   2    -0.115916280858E+03   -0.14972E-05   -0.25942E-05    50   0.269E-02
 125 F= -.11616394E+03 E0= -.11616394E+03  d E =-.107065E-03
       N       E                     dE             d eps       ncg     rms          rms(c)
DAV:   1    -0.115916351885E+03   -0.72524E-04   -0.59120E-04    89   0.135E-01    0.791E-03
RMM:   2    -0.115916352627E+03   -0.74201E-06   -0.10924E-05    43   0.174E-02
 126 F= -.11616400E+03 E0= -.11616400E+03  d E =-.684017E-04
       N       E                     dE             d eps       ncg     rms          rms(c)
DAV:   1    -0.115916459180E+03   -0.10730E-03   -0.13020E-03    70   0.200E-01    0.961E-03
RMM:   2    -0.115916460261E+03   -0.10806E-05   -0.20161E-05    46   0.235E-02
 127 F= -.11616411E+03 E0= -.11616411E+03  d E =-.101310E-03
       N       E                     dE             d eps       ncg     rms          rms(c)
DAV:   1    -0.115917257578E+03   -0.79840E-03   -0.10698E-01    70   0.180E+00    0.819E-02
RMM:   2    -0.115917331555E+03   -0.73978E-04   -0.15463E-03    70   0.209E-01    0.460E-02
RMM:   3    -0.115917365026E+03   -0.33471E-04   -0.25372E-04    70   0.896E-02    0.192E-02
RMM:   4    -0.115917376076E+03   -0.11049E-04   -0.63169E-05    61   0.422E-02    0.807E-03
RMM:   5    -0.115917378280E+03   -0.22044E-05   -0.13200E-05    46   0.195E-02
 128 F= -.11616497E+03 E0= -.11616497E+03  d E =-.864142E-03
       N       E                     dE             d eps       ncg     rms          rms(c)
DAV:   1    -0.115917604814E+03   -0.22874E-03   -0.87672E-03    70   0.517E-01    0.238E-02
RMM:   2    -0.115917611603E+03   -0.67890E-05   -0.15150E-04    68   0.648E-02    0.139E-02
RMM:   3    -0.115917614184E+03   -0.25807E-05   -0.26144E-05    50   0.283E-02
 129 F= -.11616519E+03 E0= -.11616519E+03  d E =-.224266E-03
       N       E                     dE             d eps       ncg     rms          rms(c)
DAV:   1    -0.115918647226E+03   -0.10356E-02   -0.27647E-01    70   0.289E+00    0.129E-01
RMM:   2    -0.115918854688E+03   -0.20746E-03   -0.39886E-03    70   0.335E-01    0.724E-02
RMM:   3    -0.115918935372E+03   -0.80683E-04   -0.65473E-04    70   0.144E-01    0.302E-02
RMM:   4    -0.115918961755E+03   -0.26384E-04   -0.16346E-04    72   0.679E-02    0.125E-02
RMM:   5    -0.115918967075E+03   -0.53200E-05   -0.39206E-05    55   0.326E-02
 130 F= -.11616646E+03 E0= -.11616646E+03  d E =-.126964E-02
       N       E                     dE             d eps       ncg     rms          rms(c)
DAV:   1    -0.115919129108E+03   -0.16735E-03   -0.49307E-03    70   0.384E-01    0.158E-02
RMM:   2    -0.115919133795E+03   -0.46871E-05   -0.77081E-05    65   0.470E-02
 131 F= -.11616663E+03 E0= -.11616663E+03  d E =-.161812E-03
       N       E                     dE             d eps       ncg     rms          rms(c)
DAV:   1    -0.115919224415E+03   -0.95306E-04   -0.16766E-03    76   0.227E-01    0.119E-02
RMM:   2    -0.115919225858E+03   -0.14435E-05   -0.28560E-05    48   0.283E-02
 132 F= -.11616672E+03 E0= -.11616672E+03  d E =-.914988E-04
       N       E                     dE             d eps       ncg     rms          rms(c)
DAV:   1    -0.115920060082E+03   -0.83567E-03   -0.26320E-01    70   0.280E+00    0.115E-01
RMM:   2    -0.115920264868E+03   -0.20479E-03   -0.37296E-03    70   0.324E-01    0.690E-02
RMM:   3    -0.115920331470E+03   -0.66602E-04   -0.59051E-04    70   0.139E-01    0.227E-02
RMM:   4    -0.115920351662E+03   -0.20192E-04   -0.14704E-04    73   0.646E-02    0.921E-03
RMM:   5    -0.115920356370E+03   -0.47083E-05   -0.31843E-05    53   0.298E-02
 133 F= -.11616782E+03 E0= -.11616782E+03  d E =-.110136E-02
       N       E                     dE             d eps       ncg     rms          rms(c)
DAV:   1    -0.115920849022E+03   -0.49736E-03   -0.75314E-02    70   0.150E+00    0.613E-02
RMM:   2    -0.115920908287E+03   -0.59265E-04   -0.10945E-03    70   0.176E-01    0.366E-02
RMM:   3    -0.115920928585E+03   -0.20298E-04   -0.17629E-04    70   0.756E-02    0.132E-02
RMM:   4    -0.115920936108E+03   -0.75233E-05   -0.44502E-05    57   0.358E-02
 134 F= -.11616838E+03 E0= -.11616838E+03  d E =-.559097E-03
       N       E                     dE             d eps       ncg     rms          rms(c)
DAV:   1    -0.115920676624E+03    0.25196E-03   -0.14309E-02    70   0.652E-01    0.269E-02
RMM:   2    -0.115920689080E+03   -0.12457E-04   -0.19380E-04    70   0.741E-02    0.156E-02
RMM:   3    -0.115920695250E+03   -0.61703E-05   -0.29944E-05    50   0.311E-02
 135 F= -.11616815E+03 E0= -.11616815E+03  d E =0.230867E-03
       N       E                     dE             d eps       ncg     rms          rms(c)
DAV:   1    -0.115920856528E+03   -0.16745E-03   -0.62947E-03    70   0.431E-01    0.177E-02
RMM:   2    -0.115920861932E+03   -0.54043E-05   -0.84213E-05    65   0.480E-02
 136 F= -.11616831E+03 E0= -.11616831E+03  d E =-.161271E-03
       N       E                     dE             d eps       ncg     rms          rms(c)
DAV:   1    -0.115921322354E+03   -0.46583E-03   -0.67066E-02    70   0.142E+00    0.609E-02
RMM:   2    -0.115921370326E+03   -0.47973E-04   -0.97021E-04    70   0.165E-01    0.366E-02
RMM:   3    -0.115921389953E+03   -0.19626E-04   -0.15677E-04    70   0.714E-02    0.120E-02
RMM:   4    -0.115921395542E+03   -0.55897E-05   -0.38836E-05    56   0.332E-02
 137 F= -.11616882E+03 E0= -.11616882E+03  d E =-.515808E-03
       N       E                     dE             d eps       ncg     rms          rms(c)
DAV:   1    -0.115921258962E+03    0.13099E-03   -0.40648E-03    70   0.348E-01    0.144E-02
RMM:   2    -0.115921262546E+03   -0.35836E-05   -0.51902E-05    58   0.387E-02
 138 F= -.11616869E+03 E0= -.11616869E+03  d E =0.130036E-03
       N       E                     dE             d eps       ncg     rms          rms(c)
DAV:   1    -0.115921410631E+03   -0.15167E-03   -0.61325E-03    70   0.425E-01    0.158E-02
RMM:   2    -0.115921416508E+03   -0.58770E-05   -0.81774E-05    65   0.482E-02
 139 F= -.11616884E+03 E0= -.11616884E+03  d E =-.149241E-03
       N       E                     dE             d eps       ncg     rms          rms(c)
DAV:   1    -0.115921729228E+03   -0.31860E-03   -0.33739E-02    70   0.101E+00    0.443E-02
RMM:   2    -0.115921752223E+03   -0.22995E-04   -0.49654E-04    70   0.118E-01    0.267E-02
RMM:   3    -0.115921762250E+03   -0.10027E-04   -0.81374E-05    63   0.511E-02    0.905E-03
RMM:   4    -0.115921765118E+03   -0.28674E-05   -0.18495E-05    47   0.230E-02
 140 F= -.11616918E+03 E0= -.11616918E+03  d E =-.334360E-03
       N       E                     dE             d eps       ncg     rms          rms(c)
DAV:   1    -0.115922298784E+03   -0.53653E-03   -0.15301E-01    70   0.214E+00    0.890E-02
RMM:   2    -0.115922416343E+03   -0.11756E-03   -0.21736E-03    70   0.247E-01    0.526E-02
RMM:   3    -0.115922455737E+03   -0.39394E-04   -0.34927E-04    70   0.106E-01    0.188E-02
RMM:   4    -0.115922467867E+03   -0.12130E-04   -0.89568E-05    67   0.494E-02    0.771E-03
RMM:   5    -0.115922470156E+03   -0.22894E-05   -0.15673E-05    47   0.220E-02
 141 F= -.11616986E+03 E0= -.11616986E+03  d E =-.681081E-03
       N       E                     dE             d eps       ncg     rms          rms(c)
DAV:   1    -0.115922581483E+03   -0.11362E-03   -0.75260E-03    70   0.474E-01    0.196E-02
RMM:   2    -0.115922588303E+03   -0.68195E-05   -0.11745E-04    66   0.570E-02    0.114E-02
RMM:   3    -0.115922591229E+03   -0.29258E-05   -0.20803E-05    48   0.250E-02
 142 F= -.11616997E+03 E0= -.11616997E+03  d E =-.114702E-03
       N       E                     dE             d eps       ncg     rms          rms(c)
DAV:   1    -0.115922577087E+03    0.11215E-04   -0.95566E-05    86   0.539E-02    0.405E-03
RMM:   2    -0.115922577689E+03   -0.60187E-06   -0.25503E-06    38   0.842E-03
 143 F= -.11616996E+03 E0= -.11616996E+03  d E =0.116726E-04
       N       E                     dE             d eps       ncg     rms          rms(c)
DAV:   1    -0.115922623773E+03   -0.46685E-04   -0.15566E-03    73   0.215E-01    0.921E-03
RMM:   2    -0.115922625404E+03   -0.16310E-05   -0.23309E-05    46   0.250E-02
 144 F= -.11617001E+03 E0= -.11617001E+03  d E =-.460983E-04
       N       E                     dE             d eps       ncg     rms          rms(c)
DAV:   1    -0.115922931334E+03   -0.30756E-03   -0.15509E-01    70   0.215E+00    0.909E-02
RMM:   2    -0.115923055654E+03   -0.12432E-03   -0.22634E-03    70   0.249E-01    0.527E-02
RMM:   3    -0.115923097687E+03   -0.42033E-04   -0.36510E-04    70   0.107E-01    0.210E-02
RMM:   4    -0.115923110898E+03   -0.13210E-04   -0.92751E-05    67   0.504E-02    0.887E-03
RMM:   5    -0.115923113423E+03   -0.25254E-05   -0.18464E-05    49   0.230E-02
 145 F= -.11617047E+03 E0= -.11617047E+03  d E =-.465268E-03
       N       E                     dE             d eps       ncg     rms          rms(c)
DAV:   1    -0.115922811392E+03    0.29951E-03   -0.34227E-02    70   0.101E+00    0.424E-02
RMM:   2    -0.115922839182E+03   -0.27790E-04   -0.46999E-04    70   0.115E-01    0.248E-02
RMM:   3    -0.115922850113E+03   -0.10931E-04   -0.72934E-05    63   0.484E-02    0.905E-03
RMM:   4    -0.115922854279E+03   -0.41662E-05   -0.16542E-05    47   0.217E-02
 146 F= -.11617022E+03 E0= -.11617022E+03  d E =0.250461E-03
       N       E                     dE             d eps       ncg     rms          rms(c)
DAV:   1    -0.115922838470E+03    0.11642E-04   -0.18531E-03    70   0.229E-01    0.954E-03
RMM:   2    -0.115922840897E+03   -0.24270E-05   -0.31383E-05    50   0.278E-02
 147 F= -.11617021E+03 E0= -.11617021E+03  d E =0.120045E-04
       N       E                     dE             d eps       ncg     rms          rms(c)
DAV:   1    -0.115922865826E+03   -0.27356E-04   -0.52142E-03    73   0.394E-01    0.200E-02
RMM:   2    -0.115922868693E+03   -0.28669E-05   -0.88506E-05    60   0.482E-02
 148 F= -.11617024E+03 E0= -.11617024E+03  d E =-.334404E-04
       N       E                     dE             d eps       ncg     rms          rms(c)
DAV:   1    -0.115922584901E+03    0.28093E-03   -0.22994E-02    70   0.839E-01    0.472E-02
RMM:   2    -0.115922587364E+03   -0.24630E-05   -0.44032E-04    70   0.109E-01    0.246E-02
RMM:   3    -0.115922586174E+03    0.11902E-05   -0.68984E-05    58   0.464E-02
 149 F= -.11616995E+03 E0= -.11616995E+03  d E =0.293704E-03
       N       E                     dE             d eps       ncg     rms          rms(c)
DAV:   1    -0.115921919345E+03    0.66802E-03   -0.80429E-02    70   0.151E+00    0.788E-02
RMM:   2    -0.115921961153E+03   -0.41809E-04   -0.17107E-03    70   0.206E-01    0.463E-02
RMM:   3    -0.115921963179E+03   -0.20254E-05   -0.26173E-04    70   0.870E-02    0.265E-02
RMM:   4    -0.115921973489E+03   -0.10311E-04   -0.10868E-04    66   0.500E-02    0.109E-02
RMM:   5    -0.115921974381E+03   -0.89119E-06   -0.15752E-05    47   0.208E-02
[...]
 173 F= -.11615912E+03 E0= -.11615912E+03  d E =-.748312E-03
       N       E                     dE             d eps       ncg     rms          rms(c)
DAV:   1    -0.115911573520E+03   -0.44869E-03   -0.82934E-03    70   0.499E-01    0.221E-02
RMM:   2    -0.115911580390E+03   -0.68698E-05   -0.13145E-04    68   0.611E-02    0.135E-02
RMM:   3    -0.115911584313E+03   -0.39227E-05   -0.23321E-05    50   0.267E-02
 174 F= -.11615956E+03 E0= -.11615956E+03  d E =-.439619E-03
       N       E                     dE             d eps       ncg     rms          rms(c)
DAV:   1    -0.115912887526E+03   -0.13071E-02   -0.95416E-02    70   0.169E+00    0.736E-02
RMM:   2    -0.115912962026E+03   -0.74500E-04   -0.13757E-03    70   0.196E-01    0.425E-02
RMM:   3    -0.115912993558E+03   -0.31532E-04   -0.22826E-04    71   0.848E-02    0.165E-02
RMM:   4    -0.115913002607E+03   -0.90492E-05   -0.57841E-05    60   0.401E-02
 175 F= -.11616095E+03 E0= -.11616095E+03  d E =-.138883E-02
       N       E                     dE             d eps       ncg     rms          rms(c)
DAV:   1    -0.115913872800E+03   -0.87924E-03   -0.50516E-02    70   0.122E+00    0.519E-02
RMM:   2    -0.115913912604E+03   -0.39804E-04   -0.74486E-04    70   0.143E-01    0.307E-02
RMM:   3    -0.115913929808E+03   -0.17204E-04   -0.12039E-04    66   0.615E-02    0.119E-02
RMM:   4    -0.115913935119E+03   -0.53113E-05   -0.29458E-05    53   0.284E-02
 176 F= -.11616185E+03 E0= -.11616185E+03  d E =-.905844E-03
       N       E                     dE             d eps       ncg     rms          rms(c)
DAV:   1    -0.115914701161E+03   -0.77135E-03   -0.47735E-02    70   0.118E+00    0.501E-02
RMM:   2    -0.115914740133E+03   -0.38972E-04   -0.70642E-04    70   0.139E-01    0.291E-02
RMM:   3    -0.115914756548E+03   -0.16415E-04   -0.11362E-04    66   0.595E-02    0.113E-02
RMM:   4    -0.115914761494E+03   -0.49451E-05   -0.27896E-05    53   0.276E-02
 177 F= -.11616265E+03 E0= -.11616265E+03  d E =-.803020E-03
       N       E                     dE             d eps       ncg     rms          rms(c)
DAV:   1    -0.115916206911E+03   -0.14504E-02   -0.28422E-01    70   0.288E+00    0.121E-01
RMM:   2    -0.115916437086E+03   -0.23017E-03   -0.41239E-03    70   0.336E-01    0.709E-02
RMM:   3    -0.115916523714E+03   -0.86629E-04   -0.64659E-04    70   0.143E-01    0.263E-02
RMM:   4    -0.115916549201E+03   -0.25486E-04   -0.16598E-04    73   0.678E-02    0.106E-02
RMM:   5    -0.115916554170E+03   -0.49695E-05   -0.36476E-05    52   0.312E-02
 178 F= -.11616438E+03 E0= -.11616438E+03  d E =-.172878E-02
       N       E                     dE             d eps       ncg     rms          rms(c)
DAV:   1    -0.115917100962E+03   -0.55176E-03   -0.41934E-02    70   0.110E+00    0.452E-02
RMM:   2    -0.115917136802E+03   -0.35840E-04   -0.63509E-04    70   0.131E-01    0.264E-02
RMM:   3    -0.115917151848E+03   -0.15047E-04   -0.10173E-04    65   0.564E-02    0.105E-02
RMM:   4    -0.115917157015E+03   -0.51668E-05   -0.25057E-05    53   0.267E-02
 179 F= -.11616496E+03 E0= -.11616496E+03  d E =-.577285E-03
       N       E                     dE             d eps       ncg     rms          rms(c)
DAV:   1    -0.115917803314E+03   -0.65147E-03   -0.72131E-02    70   0.144E+00    0.592E-02
RMM:   2    -0.115917863810E+03   -0.60496E-04   -0.10732E-03    70   0.169E-01    0.347E-02
RMM:   3    -0.115917888406E+03   -0.24595E-04   -0.16624E-04    69   0.719E-02    0.135E-02
RMM:   4    -0.115917895427E+03   -0.70213E-05   -0.40938E-05    56   0.336E-02
 180 F= -.11616567E+03 E0= -.11616567E+03  d E =-.704927E-03
       N       E                     dE             d eps       ncg     rms          rms(c)
DAV:   1    -0.115918971977E+03   -0.10836E-02   -0.64671E-01    70   0.428E+00    0.174E-01
RMM:   2    -0.115919548346E+03   -0.57637E-03   -0.95095E-03    70   0.501E-01    0.103E-01
RMM:   3    -0.115919720789E+03   -0.17244E-03   -0.14514E-03    70   0.213E-01    0.382E-02
RMM:   4    -0.115919776974E+03   -0.56184E-04   -0.36347E-04    73   0.100E-01    0.144E-02
RMM:   5    -0.115919788569E+03   -0.11595E-04   -0.90386E-05    63   0.463E-02    0.409E-03
RMM:   6    -0.115919791906E+03   -0.33367E-05   -0.12450E-05    47   0.199E-02
 181 F= -.11616746E+03 E0= -.11616746E+03  d E =-.179188E-02
       N       E                     dE             d eps       ncg     rms          rms(c)
DAV:   1    -0.115920290855E+03   -0.50229E-03   -0.87911E-02    70   0.156E+00    0.626E-02
RMM:   2    -0.115920366972E+03   -0.76117E-04   -0.13206E-03    70   0.184E-01    0.367E-02
RMM:   3    -0.115920397193E+03   -0.30220E-04   -0.20046E-04    69   0.782E-02    0.147E-02
RMM:   4    -0.115920407210E+03   -0.10018E-04   -0.49483E-05    57   0.366E-02    0.581E-03
RMM:   5    -0.115920410912E+03   -0.37012E-05   -0.10493E-05    46   0.165E-02
 182 F= -.11616804E+03 E0= -.11616804E+03  d E =-.583184E-03
       N       E                     dE             d eps       ncg     rms          rms(c)
DAV:   1    -0.115920571681E+03   -0.16447E-03   -0.66092E-03    73   0.421E-01    0.174E-02
RMM:   2    -0.115920577992E+03   -0.63110E-05   -0.11064E-04    59   0.525E-02    0.102E-02
RMM:   3    -0.115920581165E+03   -0.31728E-05   -0.17771E-05    50   0.224E-02
 183 F= -.11616820E+03 E0= -.11616820E+03  d E =-.155333E-03
       N       E                     dE             d eps       ncg     rms          rms(c)
DAV:   1    -0.115920741285E+03   -0.16329E-03   -0.74258E-03    70   0.444E-01    0.182E-02
RMM:   2    -0.115920748719E+03   -0.74337E-05   -0.12320E-04    61   0.552E-02    0.110E-02
RMM:   3    -0.115920752194E+03   -0.34744E-05   -0.19663E-05    50   0.235E-02
 184 F= -.11616836E+03 E0= -.11616836E+03  d E =-.163216E-03
       N       E                     dE             d eps       ncg     rms          rms(c)
DAV:   1    -0.115920947413E+03   -0.19869E-03   -0.11113E-02    70   0.545E-01    0.220E-02
RMM:   2    -0.115920956950E+03   -0.95372E-05   -0.17755E-04    64   0.667E-02    0.134E-02
RMM:   3    -0.115920961462E+03   -0.45123E-05   -0.27999E-05    53   0.284E-02
 185 F= -.11616855E+03 E0= -.11616855E+03  d E =-.192424E-03
       N       E                     dE             d eps       ncg     rms          rms(c)
DAV:   1    -0.115920888106E+03    0.68844E-04   -0.18110E+00    70   0.692E+00    0.266E-01
RMM:   2    -0.115922762109E+03   -0.18740E-02   -0.27357E-02    70   0.823E-01    0.161E-01
RMM:   3    -0.115923151622E+03   -0.38951E-03   -0.40138E-03    70   0.346E-01    0.627E-02
RMM:   4    -0.115923288781E+03   -0.13716E-03   -0.93069E-04    71   0.163E-01    0.203E-02
RMM:   5    -0.115923325969E+03   -0.37188E-04   -0.31293E-04    73   0.784E-02    0.684E-03
RMM:   6    -0.115923332663E+03   -0.66937E-05   -0.32600E-05    49   0.314E-02
 186 F= -.11617074E+03 E0= -.11617074E+03  d E =-.218882E-02
       N       E                     dE             d eps       ncg     rms          rms(c)
DAV:   1    -0.115923023577E+03    0.30239E-03   -0.27905E-02    70   0.865E-01    0.346E-02
RMM:   2    -0.115923053639E+03   -0.30062E-04   -0.41525E-04    70   0.102E-01    0.203E-02
RMM:   3    -0.115923071057E+03   -0.17418E-04   -0.60123E-05    56   0.424E-02    0.811E-03
RMM:   4    -0.115923079058E+03   -0.80014E-05   -0.13253E-05    48   0.191E-02
 187 F= -.11617051E+03 E0= -.11617051E+03  d E =0.227850E-03
       N       E                     dE             d eps       ncg     rms          rms(c)
DAV:   1    -0.115923355158E+03   -0.28410E-03   -0.36581E-02    70   0.981E-01    0.388E-02
RMM:   2    -0.115923386627E+03   -0.31469E-04   -0.54459E-04    70   0.116E-01    0.227E-02
RMM:   3    -0.115923400833E+03   -0.14205E-04   -0.79671E-05    57   0.487E-02    0.924E-03
RMM:   4    -0.115923405089E+03   -0.42564E-05   -0.17574E-05    49   0.222E-02
 188 F= -.11617081E+03 E0= -.11617081E+03  d E =-.298973E-03
       N       E                     dE             d eps       ncg     rms          rms(c)
DAV:   1    -0.115923844609E+03   -0.44378E-03   -0.18912E-01    70   0.221E+00    0.855E-02
RMM:   2    -0.115924024373E+03   -0.17976E-03   -0.29242E-03    70   0.266E-01    0.511E-02
RMM:   3    -0.115924082254E+03   -0.57881E-04   -0.42964E-04    70   0.112E-01    0.216E-02
RMM:   4    -0.115924100191E+03   -0.17937E-04   -0.99502E-05    60   0.525E-02    0.766E-03
RMM:   5    -0.115924104358E+03   -0.41678E-05   -0.29105E-05    53   0.245E-02
 189 F= -.11617146E+03 E0= -.11617146E+03  d E =-.651400E-03
       N       E                     dE             d eps       ncg     rms          rms(c)
DAV:   1    -0.115924584830E+03   -0.48464E-03   -0.29457E-01    70   0.277E+00    0.107E-01
RMM:   2    -0.115924865738E+03   -0.28091E-03   -0.45448E-03    70   0.334E-01    0.639E-02
RMM:   3    -0.115924946989E+03   -0.81251E-04   -0.67571E-04    70   0.141E-01    0.270E-02
RMM:   4    -0.115924974547E+03   -0.27558E-04   -0.15899E-04    67   0.672E-02    0.882E-03
RMM:   5    -0.115924982173E+03   -0.76257E-05   -0.49994E-05    55   0.323E-02
 190 F= -.11617227E+03 E0= -.11617227E+03  d E =-.804759E-03
       N       E                     dE             d eps       ncg     rms          rms(c)
DAV:   1    -0.115925261209E+03   -0.28666E-03   -0.36365E-02    70   0.970E-01    0.376E-02
RMM:   2    -0.115925296068E+03   -0.34860E-04   -0.58638E-04    70   0.120E-01    0.223E-02
RMM:   3    -0.115925309371E+03   -0.13303E-04   -0.89948E-05    58   0.515E-02    0.101E-02
RMM:   4    -0.115925314917E+03   -0.55457E-05   -0.20982E-05    53   0.240E-02
 191 F= -.11617258E+03 E0= -.11617258E+03  d E =-.314631E-03
       N       E                     dE             d eps       ncg     rms          rms(c)
DAV:   1    -0.115925420362E+03   -0.11099E-03   -0.97150E-04    89   0.171E-01    0.775E-03
RMM:   2    -0.115925422029E+03   -0.16674E-05   -0.18662E-05    47   0.226E-02
 192 F= -.11617269E+03 E0= -.11617269E+03  d E =-.103416E-03
       N       E                     dE             d eps       ncg     rms          rms(c)
DAV:   1    -0.115925746686E+03   -0.32632E-03   -0.45430E-02    70   0.109E+00    0.434E-02
RMM:   2    -0.115925786874E+03   -0.40189E-04   -0.70987E-04    70   0.133E-01    0.260E-02
RMM:   3    -0.115925802645E+03   -0.15771E-04   -0.10601E-04    59   0.564E-02    0.107E-02
RMM:   4    -0.115925807914E+03   -0.52694E-05   -0.23898E-05    53   0.259E-02
 193 F= -.11617304E+03 E0= -.11617304E+03  d E =-.358908E-03
       N       E                     dE             d eps       ncg     rms          rms(c)
DAV:   1    -0.115926268174E+03   -0.46553E-03   -0.85731E-02    70   0.150E+00    0.570E-02
RMM:   2    -0.115926351646E+03   -0.83472E-04   -0.13425E-03    70   0.183E-01    0.346E-02
RMM:   3    -0.115926377725E+03   -0.26079E-04   -0.19800E-04    68   0.771E-02    0.146E-02
RMM:   4    -0.115926386681E+03   -0.89562E-05   -0.45444E-05    54   0.356E-02
 194 F= -.11617359E+03 E0= -.11617359E+03  d E =-.548994E-03
       N       E                     dE             d eps       ncg     rms          rms(c)
DAV:   1    -0.115926528675E+03   -0.15095E-03   -0.30893E-03    70   0.293E-01    0.116E-02
RMM:   2    -0.115926531674E+03   -0.29990E-05   -0.53195E-05    56   0.375E-02
 195 F= -.11617373E+03 E0= -.11617373E+03  d E =-.137128E-03
       N       E                     dE             d eps       ncg     rms          rms(c)
DAV:   1    -0.115926749827E+03   -0.22115E-03   -0.51673E-03    70   0.394E-01    0.179E-02
RMM:   2    -0.115926753208E+03   -0.33807E-05   -0.87450E-05    62   0.499E-02
 196 F= -.11617395E+03 E0= -.11617395E+03  d E =-.219543E-03
       N       E                     dE             d eps       ncg     rms          rms(c)
DAV:   1    -0.115926839321E+03   -0.89493E-04   -0.87147E-02    70   0.157E+00    0.647E-02
RMM:   2    -0.115926911698E+03   -0.72378E-04   -0.12244E-03    70   0.178E-01    0.357E-02
RMM:   3    -0.115926939014E+03   -0.27315E-04   -0.19764E-04    71   0.763E-02    0.161E-02
RMM:   4    -0.115926949376E+03   -0.10363E-04   -0.48493E-05    57   0.361E-02    0.691E-03
RMM:   5    -0.115926951406E+03   -0.20297E-05   -0.99980E-06    46   0.167E-02
 197 F= -.11617417E+03 E0= -.11617417E+03  d E =-.222221E-03
       N       E                     dE             d eps       ncg     rms          rms(c)
DAV:   1    -0.115926498999E+03    0.45038E-03   -0.13168E-01    70   0.186E+00    0.753E-02
RMM:   2    -0.115926624906E+03   -0.12591E-03   -0.20362E-03    70   0.221E-01    0.427E-02
RMM:   3    -0.115926664232E+03   -0.39327E-04   -0.31097E-04    68   0.946E-02    0.198E-02
RMM:   4    -0.115926678337E+03   -0.14105E-04   -0.76821E-05    57   0.447E-02    0.752E-03
RMM:   5    -0.115926680951E+03   -0.26138E-05   -0.17735E-05    49   0.207E-02
 198 F= -.11617394E+03 E0= -.11617394E+03  d E =0.231088E-03
       N       E                     dE             d eps       ncg     rms          rms(c)
DAV:   1    -0.115927079559E+03   -0.40122E-03   -0.21634E-02    70   0.820E-01    0.333E-02
RMM:   2    -0.115927092718E+03   -0.13159E-04   -0.27907E-04    70   0.934E-02    0.199E-02
RMM:   3    -0.115927097758E+03   -0.50400E-05   -0.47772E-05    61   0.397E-02
 199 F= -.11617435E+03 E0= -.11617435E+03  d E =-.411440E-03
       N       E                     dE             d eps       ncg     rms          rms(c)
DAV:   1    -0.115927084206E+03    0.85118E-05   -0.25112E-02    70   0.852E-01    0.355E-02
RMM:   2    -0.115927101721E+03   -0.17515E-04   -0.36930E-04    70   0.986E-02    0.203E-02
RMM:   3    -0.115927110558E+03   -0.88364E-05   -0.60853E-05    59   0.425E-02
 200 F= -.11617438E+03 E0= -.11617438E+03  d E =-.307285E-04
       N       E                     dE             d eps       ncg     rms          rms(c)
DAV:   1    -0.115927211465E+03   -0.10974E-03   -0.72963E-03    76   0.471E-01    0.204E-02
RMM:   2    -0.115927216005E+03   -0.45400E-05   -0.11693E-04    65   0.568E-02    0.127E-02
RMM:   3    -0.115927218451E+03   -0.24459E-05   -0.21383E-05    50   0.249E-02
 201 F= -.11617449E+03 E0= -.11617449E+03  d E =-.106110E-03
       N       E                     dE             d eps       ncg     rms          rms(c)
DAV:   1    -0.115927348226E+03   -0.13222E-03   -0.81676E-03    70   0.507E-01    0.226E-02
RMM:   2    -0.115927352015E+03   -0.37892E-05   -0.11935E-04    69   0.602E-02    0.134E-02
RMM:   3    -0.115927354344E+03   -0.23293E-05   -0.21607E-05    50   0.259E-02
 202 F= -.11617463E+03 E0= -.11617463E+03  d E =-.141547E-03
       N       E                     dE             d eps       ncg     rms          rms(c)
DAV:   1    -0.115927574668E+03   -0.22265E-03   -0.45702E-02    70   0.118E+00    0.487E-02
RMM:   2    -0.115927604546E+03   -0.29878E-04   -0.62037E-04    70   0.134E-01    0.286E-02
RMM:   3    -0.115927617965E+03   -0.13419E-04   -0.10773E-04    70   0.585E-02    0.110E-02
RMM:   4    -0.115927622791E+03   -0.48264E-05   -0.30247E-05    52   0.281E-02
 203 F= -.11617490E+03 E0= -.11617490E+03  d E =-.268058E-03
       N       E                     dE             d eps       ncg     rms          rms(c)
DAV:   1    -0.115927856632E+03   -0.23867E-03   -0.30828E-02    70   0.975E-01    0.401E-02
RMM:   2    -0.115927876486E+03   -0.19854E-04   -0.41469E-04    70   0.111E-01    0.241E-02
RMM:   3    -0.115927884714E+03   -0.82289E-05   -0.71498E-05    64   0.479E-02
 204 F= -.11617515E+03 E0= -.11617515E+03  d E =-.255460E-03
       N       E                     dE             d eps       ncg     rms          rms(c)
DAV:   1    -0.115928034642E+03   -0.15816E-03   -0.18615E-02    70   0.757E-01    0.314E-02
RMM:   2    -0.115928048118E+03   -0.13477E-04   -0.26906E-04    70   0.898E-02    0.194E-02
RMM:   3    -0.115928054542E+03   -0.64231E-05   -0.48371E-05    60   0.393E-02
 205 F= -.11617532E+03 E0= -.11617532E+03  d E =-.166761E-03
       N       E                     dE             d eps       ncg     rms          rms(c)
DAV:   1    -0.115928186529E+03   -0.13841E-03   -0.10984E-02    70   0.582E-01    0.249E-02
RMM:   2    -0.115928194670E+03   -0.81414E-05   -0.16323E-04    70   0.704E-02    0.152E-02
RMM:   3    -0.115928198435E+03   -0.37648E-05   -0.29497E-05    52   0.306E-02
 206 F= -.11617546E+03 E0= -.11617546E+03  d E =-.140794E-03
       N       E                     dE             d eps       ncg     rms          rms(c)
DAV:   1    -0.115928380272E+03   -0.18560E-03   -0.36255E-02    70   0.105E+00    0.435E-02
RMM:   2    -0.115928405352E+03   -0.25079E-04   -0.51055E-04    70   0.123E-01    0.262E-02
RMM:   3    -0.115928415062E+03   -0.97106E-05   -0.88841E-05    67   0.534E-02
 207 F= -.11617567E+03 E0= -.11617567E+03  d E =-.203104E-03
       N       E                     dE             d eps       ncg     rms          rms(c)
DAV:   1    -0.115928541725E+03   -0.13637E-03   -0.16898E-02    70   0.720E-01    0.310E-02
RMM:   2    -0.115928553481E+03   -0.11756E-04   -0.25387E-04    70   0.873E-02    0.190E-02
RMM:   3    -0.115928558879E+03   -0.53974E-05   -0.45265E-05    59   0.380E-02
 208 F= -.11617581E+03 E0= -.11617581E+03  d E =-.140321E-03
       N       E                     dE             d eps       ncg     rms          rms(c)
DAV:   1    -0.115928653602E+03   -0.10012E-03   -0.93288E-03    70   0.532E-01    0.223E-02
RMM:   2    -0.115928660815E+03   -0.72124E-05   -0.14254E-04    69   0.645E-02    0.137E-02
RMM:   3    -0.115928663980E+03   -0.31654E-05   -0.26233E-05    51   0.284E-02
 209 F= -.11617590E+03 E0= -.11617590E+03  d E =-.962501E-04
       N       E                     dE             d eps       ncg     rms          rms(c)
DAV:   1    -0.115928757610E+03   -0.96795E-04   -0.10997E-02    70   0.577E-01    0.240E-02
RMM:   2    -0.115928765768E+03   -0.81582E-05   -0.15989E-04    70   0.684E-02    0.146E-02
RMM:   3    -0.115928769606E+03   -0.38383E-05   -0.28888E-05    51   0.301E-02
 210 F= -.11617600E+03 E0= -.11617600E+03  d E =-.987767E-04
       N       E                     dE             d eps       ncg     rms          rms(c)
DAV:   1    -0.115928810705E+03   -0.44937E-04   -0.24730E-03    76   0.275E-01    0.129E-02
RMM:   2    -0.115928812478E+03   -0.17728E-05   -0.42524E-05    55   0.351E-02
 211 F= -.11617604E+03 E0= -.11617604E+03  d E =-.429327E-04
       N       E                     dE             d eps       ncg     rms          rms(c)
DAV:   1    -0.115928950423E+03   -0.13972E-03   -0.40308E-02    70   0.110E+00    0.477E-02
RMM:   2    -0.115928977311E+03   -0.26888E-04   -0.57929E-04    70   0.128E-01    0.284E-02
RMM:   3    -0.115928988318E+03   -0.11007E-04   -0.96791E-05    69   0.556E-02    0.105E-02
RMM:   4    -0.115928992168E+03   -0.38497E-05   -0.23997E-05    49   0.257E-02
 212 F= -.11617621E+03 E0= -.11617621E+03  d E =-.163423E-03
       N       E                     dE             d eps       ncg     rms          rms(c)
DAV:   1    -0.115928996996E+03   -0.86783E-05   -0.36093E-04    89   0.104E-01    0.546E-03
RMM:   2    -0.115928997620E+03   -0.62351E-06   -0.75539E-06    41   0.141E-02
 213 F= -.11617621E+03 E0= -.11617621E+03  d E =-.731333E-05
       N       E                     dE             d eps       ncg     rms          rms(c)
DAV:   1    -0.115929017934E+03   -0.20938E-04   -0.61987E-04    73   0.136E-01    0.657E-03
RMM:   2    -0.115929018722E+03   -0.78838E-06   -0.11479E-05    43   0.173E-02
 214 F= -.11617623E+03 E0= -.11617623E+03  d E =-.182520E-04
       N       E                     dE             d eps       ncg     rms          rms(c)
DAV:   1    -0.115929116166E+03   -0.98232E-04   -0.55296E-02    70   0.128E+00    0.545E-02
RMM:   2    -0.115929160790E+03   -0.44623E-04   -0.82195E-04    70   0.149E-01    0.311E-02
RMM:   3    -0.115929177912E+03   -0.17122E-04   -0.13371E-04    68   0.645E-02    0.133E-02
RMM:   4    -0.115929183022E+03   -0.51101E-05   -0.34377E-05    54   0.301E-02
 215 F= -.11617639E+03 E0= -.11617639E+03  d E =-.153550E-03
