unknown system                          
           1
    15.000000    0.000000    0.000000
     0.000000   15.000000    0.000000
     0.000000    0.000000   15.000000
   C    H    N 
     8     8     2
Direct configuration=     1
   0.37484336  0.53121783  0.58914590
   0.38040252  0.44193918  0.59155925
   0.47172269  0.40600851  0.60300606
   0.46139153  0.58064078  0.59358167
   0.51894020  0.54308351  0.51476079
   0.52929011  0.44052595  0.52378630
   0.60399123  0.58796011  0.50574417
   0.49808965  0.38967778  0.44769400
   0.32636971  0.39588169  0.57617873
   0.50221012  0.43163889  0.66374735
   0.47536689  0.33381339  0.60725405
   0.31490874  0.56843183  0.57193151
   0.49903702  0.56691913  0.65474889
   0.45514790  0.65263392  0.58865894
   0.48341124  0.55883235  0.45283651
   0.59958141  0.42614523  0.53815958
   0.67019822  0.62680888  0.49422949
   0.46261167  0.34188307  0.39766773
Direct configuration=     2
   0.37481182  0.53124660  0.58908410
   0.38023386  0.44199429  0.59162500
   0.47190246  0.40592036  0.60307529
   0.46150278  0.58051497  0.59341287
   0.51880313  0.54331380  0.51463137
   0.52940940  0.44039946  0.52396491
   0.60397796  0.58794758  0.50575963
   0.49796445  0.38962419  0.44759172
   0.32628774  0.39597009  0.57631332
   0.50242861  0.43174244  0.66396373
   0.47538028  0.33357713  0.60723640
   0.31482127  0.56830622  0.57193477
   0.49905058  0.56696798  0.65489085
   0.45502122  0.65286228  0.58858715
   0.48328151  0.55883690  0.45270624
   0.59962631  0.42595991  0.53792972
   0.67043130  0.62691054  0.49442544
   0.46247601  0.34188907  0.39746676
Direct configuration=     3
   0.37479117  0.53125671  0.58902661
   0.38017881  0.44202976  0.59169433
   0.47201719  0.40585216  0.60318223
   0.46158471  0.58053506  0.59329963
   0.51871648  0.54343921  0.51454338
   0.52944425  0.44030147  0.52405276
   0.60419395  0.58809263  0.50572447
   0.49787161  0.38957876  0.44752872
   0.32616901  0.39604033  0.57644372
   0.50260108  0.43180831  0.66414258
   0.47538888  0.33338369  0.60721382
   0.31471817  0.56820883  0.57195083
   0.49903905  0.56701685  0.65498639
   0.45491954  0.65297641  0.58851676
   0.48314591  0.55883687  0.45256944
   0.59971630  0.42578588  0.53773218
   0.67044051  0.62687327  0.49463534
   0.46238719  0.34191879  0.39727914
Direct configuration=     4
   0.37477285  0.53128080  0.58893226
   0.38012862  0.44206325  0.59181615
   0.47218607  0.40573899  0.60338083
   0.46170240  0.58060235  0.59313871
   0.51865386  0.54363708  0.51439145
   0.52948520  0.44015436  0.52415956
   0.60416047  0.58811856  0.50572120
   0.49771110  0.38949351  0.44742897
   0.32596433  0.39616202  0.57667398
   0.50287387  0.43189561  0.66442103
   0.47540279  0.33309052  0.60717817
   0.31453860  0.56804989  0.57198319
   0.49900217  0.56710811  0.65511474
   0.45475569  0.65313758  0.58839366
   0.48292544  0.55883223  0.45234685
   0.59986952  0.42549576  0.53739892
   0.67078371  0.62699586  0.49493670
   0.46226131  0.34199652  0.39697690
Direct configuration=     5
   0.37477923  0.53134422  0.58871293
   0.38011948  0.44208608  0.59211934
   0.47250997  0.40547357  0.60390518
   0.46189543  0.58085103  0.59285025
   0.51856104  0.54395948  0.51403426
   0.52954618  0.43983414  0.52429862
   0.60445397  0.58843508  0.50561958
   0.49737070  0.38930717  0.44726480
   0.32544524  0.39648197  0.57727296
   0.50345230  0.43201511  0.66503847
   0.47542423  0.33248711  0.60708929
   0.31408033  0.56769123  0.57210452
   0.49884975  0.56735692  0.65532211
   0.45439701  0.65343791  0.58806964
   0.48241556  0.55879077  0.45185571
   0.60023619  0.42481766  0.53661534
   0.67125612  0.62706137  0.49570223
   0.46205878  0.34223859  0.39622893
Direct configuration=     6
   0.37480083  0.53133341  0.58872321
   0.38016474  0.44207208  0.59212480
   0.47246979  0.40548227  0.60390524
   0.46183996  0.58086842  0.59289138
   0.51861158  0.54389192  0.51403498
   0.52954233  0.43985700  0.52424117
   0.60443160  0.58843597  0.50560323
   0.49738614  0.38931294  0.44729659
   0.32545082  0.39649970  0.57729936
   0.50340674  0.43195978  0.66500116
   0.47541973  0.33255368  0.60709620
   0.31408446  0.56769874  0.57212668
   0.49881974  0.56737477  0.65526420
   0.45441804  0.65340441  0.58805597
   0.48244430  0.55877266  0.45189724
   0.60021138  0.42483757  0.53662614
   0.67124469  0.62704493  0.49569399
   0.46211690  0.34227604  0.39623348
Direct configuration=     7
   0.37482543  0.53133113  0.58869499
   0.38022195  0.44206406  0.59221518
   0.47248240  0.40544636  0.60399837
   0.46178825  0.58091814  0.59284981
   0.51866376  0.54385730  0.51396162
   0.52956032  0.43981894  0.52420636
   0.60445220  0.58850290  0.50553857
   0.49735767  0.38929580  0.44732875
   0.32533544  0.39663533  0.57752864
   0.50344706  0.43186056  0.66509535
   0.47540719  0.33253300  0.60708549
   0.31398924  0.56761195  0.57222820
   0.49871830  0.56747890  0.65521441
   0.45437230  0.65343746  0.58792936
   0.48238415  0.55871013  0.45187608
   0.60024527  0.42471049  0.53645608
   0.67136055  0.62703497  0.49585975
   0.46220624  0.34240300  0.39600726
Direct configuration=     8
   0.37484845  0.53132831  0.58863840
   0.38028974  0.44206668  0.59237912
   0.47253282  0.40537868  0.60415900
   0.46172932  0.58100616  0.59273420
   0.51873040  0.54383458  0.51383515
   0.52959920  0.43973851  0.52418881
   0.60451163  0.58862887  0.50542637
   0.49728109  0.38922966  0.44732956
   0.32511459  0.39687944  0.57794959
   0.50354282  0.43170087  0.66529757
   0.47538313  0.33245219  0.60705923
   0.31380946  0.56744633  0.57241441
   0.49854629  0.56766349  0.65515785
   0.45427855  0.65351432  0.58769304
   0.48225733  0.55859834  0.45181446
   0.60032556  0.42446521  0.53614308
   0.67156849  0.62701741  0.49616704
   0.46238255  0.34265281  0.39561094
Direct configuration=     9
   0.37485140  0.53131036  0.58864656
   0.38032679  0.44207884  0.59244784
   0.47250724  0.40538773  0.60415221
   0.46164739  0.58102644  0.59267801
   0.51879955  0.54375034  0.51382414
   0.52961860  0.43974098  0.52415966
   0.60451441  0.58866404  0.50535331
   0.49732536  0.38923966  0.44737611
   0.32504296  0.39701413  0.57818492
   0.50348098  0.43152745  0.66533657
   0.47534981  0.33251337  0.60705388
   0.31376360  0.56738899  0.57256130
   0.49843572  0.56776464  0.65506947
   0.45428469  0.65350886  0.58755302
   0.48227093  0.55850264  0.45187704
   0.60031360  0.42441797  0.53607686
   0.67160946  0.62697257  0.49624054
   0.46260305  0.34280077  0.39541888
Direct configuration=    10
   0.37483516  0.53131595  0.58864468
   0.38032532  0.44210489  0.59253283
   0.47251792  0.40537993  0.60415956
   0.46161689  0.58105276  0.59256575
   0.51884064  0.54372868  0.51380486
   0.52964599  0.43971508  0.52419081
   0.60449052  0.58867409  0.50529042
   0.49736918  0.38924043  0.44737749
   0.32492429  0.39716095  0.57847008
   0.50345497  0.43136762  0.66543993
   0.47530541  0.33250082  0.60703154
   0.31368072  0.56731300  0.57273317
   0.49832434  0.56787840  0.65502371
   0.45426441  0.65353656  0.58737646
   0.48224673  0.55839555  0.45189414
   0.60034330  0.42432836  0.53598868
   0.67172410  0.62696088  0.49633557
   0.46284520  0.34296122  0.39515915
Direct configuration=    11
   0.37482210  0.53132373  0.58865978
   0.38031282  0.44212533  0.59256059
   0.47250520  0.40538814  0.60412951
   0.46160293  0.58105533  0.59251262
   0.51885183  0.54370604  0.51382191
   0.52965839  0.43971535  0.52421686
   0.60453101  0.58869069  0.50525825
   0.49743453  0.38926189  0.44737779
   0.32487846  0.39721624  0.57860056
   0.50340112  0.43127154  0.66546940
   0.47527094  0.33251587  0.60701691
   0.31365361  0.56729940  0.57283201
   0.49827413  0.56792655  0.65499588
   0.45427388  0.65353684  0.58728772
   0.48226102  0.55833259  0.45192424
   0.60034814  0.42432140  0.53600667
   0.67169697  0.62691671  0.49633604
   0.46301404  0.34303178  0.39504396
Direct configuration=    12
   0.37480950  0.53134421  0.58865826
   0.38030078  0.44216185  0.59264809
   0.47251585  0.40536260  0.60415638
   0.46159680  0.58109534  0.59239863
   0.51887601  0.54370552  0.51379935
   0.52968901  0.43967753  0.52426844
   0.60453940  0.58870402  0.50520469
   0.49750389  0.38927444  0.44735500
   0.32473195  0.39734889  0.57890339
   0.50338018  0.43112033  0.66559225
   0.47521335  0.33247106  0.60697856
   0.31354440  0.56723532  0.57301759
   0.49816700  0.56804355  0.65496822
   0.45424490  0.65357392  0.58709207
   0.48222250  0.55821912  0.45191152
   0.60040031  0.42422526  0.53594053
   0.67179346  0.62689533  0.49642305
   0.46328266  0.34318887  0.39475314
Direct configuration=    13
   0.37480222  0.53136982  0.58865534
   0.38028916  0.44218780  0.59271734
   0.47252059  0.40533150  0.60419209
   0.46159793  0.58113629  0.59231894
   0.51888762  0.54370784  0.51377510
   0.52971463  0.43964242  0.52430929
   0.60457608  0.58872383  0.50516944
   0.49755957  0.38928230  0.44731754
   0.32461045  0.39744319  0.57914603
   0.50337142  0.43101103  0.66569127
   0.47516347  0.33242124  0.60694185
   0.31345053  0.56719141  0.57316332
   0.49808946  0.56813708  0.65495327
   0.45421596  0.65360805  0.58693362
   0.48218641  0.55813129  0.45188324
   0.60044753  0.42414735  0.53589818
   0.67184453  0.62686701  0.49649169
   0.46350208  0.34331763  0.39452725
Direct configuration=    14
   0.37479671  0.53139352  0.58865041
   0.38028009  0.44221332  0.59279023
   0.47252468  0.40529408  0.60423755
   0.46159658  0.58118271  0.59224538
   0.51890224  0.54370950  0.51374155
   0.52973837  0.43960238  0.52434055
   0.60458422  0.58872555  0.50514350
   0.49762247  0.38930768  0.44729604
   0.32448940  0.39753435  0.57939420
   0.50337430  0.43090908  0.66578958
   0.47511383  0.33236362  0.60690403
   0.31335493  0.56714716  0.57330495
   0.49801685  0.56823459  0.65493991
   0.45418054  0.65364731  0.58677354
   0.48214764  0.55804675  0.45184350
   0.60049410  0.42406417  0.53585089
   0.67192285  0.62685403  0.49656650
   0.46370127  0.34343374  0.39428263
Direct configuration=    15
   0.37478594  0.53143173  0.58864671
   0.38026491  0.44225535  0.59291187
   0.47252520  0.40523475  0.60430525
   0.46158736  0.58125739  0.59212444
   0.51892451  0.54370205  0.51368938
   0.52977856  0.43954240  0.52439383
   0.60462708  0.58874008  0.50509882
   0.49771225  0.38932404  0.44722324
   0.32429550  0.39768407  0.57981222
   0.50337268  0.43073354  0.66594337
   0.47502824  0.33227519  0.60684161
   0.31320278  0.56707725  0.57354399
   0.49789819  0.56839998  0.65491232
   0.45412432  0.65371090  0.58650439
   0.48209274  0.55790363  0.45178233
   0.60056380  0.42393390  0.53578360
   0.67201689  0.62681270  0.49668888
   0.46406304  0.34365746  0.39390897
Direct configuration=    16
   0.37477929  0.53144915  0.58864662
   0.38025905  0.44227568  0.59297880
   0.47252438  0.40520576  0.60433629
   0.46157615  0.58129514  0.59205999
   0.51893578  0.54369079  0.51366198
   0.52979686  0.43951139  0.52441583
   0.60466424  0.58875514  0.50507360
   0.49776369  0.38934180  0.44719695
   0.32419930  0.39776448  0.58003794
   0.50337265  0.43063792  0.66601826
   0.47498347  0.33223338  0.60681075
   0.31312779  0.56703887  0.57366992
   0.49783634  0.56849111  0.65489272
   0.45409438  0.65374410  0.58636099
   0.48206919  0.55782796  0.45175281
   0.60059443  0.42386640  0.53574637
   0.67204972  0.62678079  0.49675961
   0.46424686  0.34377195  0.39370428
Direct configuration=    17
   0.37476928  0.53147432  0.58864819
   0.38025135  0.44230563  0.59308246
   0.47252140  0.40515990  0.60438388
   0.46155718  0.58135351  0.59196487
   0.51895601  0.54367308  0.51361786
   0.52982208  0.43946459  0.52444539
   0.60467982  0.58875043  0.50504606
   0.49783882  0.38936881  0.44715011
   0.32405877  0.39788101  0.58038417
   0.50337787  0.43049649  0.66612514
   0.47491497  0.33216878  0.60676394
   0.31301710  0.56698262  0.57385804
   0.49774783  0.56863268  0.65486160
   0.45404603  0.65379586  0.58614217
   0.48203763  0.55771522  0.45170286
   0.60063626  0.42376541  0.53569262
   0.67212996  0.62675051  0.49686614
   0.46452269  0.34394942  0.39339838
Direct configuration=    18
   0.37475506  0.53149959  0.58865816
   0.38024547  0.44234139  0.59322039
   0.47251457  0.40510625  0.60443120
   0.46152274  0.58142367  0.59184219
   0.51897779  0.54363764  0.51356535
   0.52984584  0.43940946  0.52447515
   0.60471952  0.58874767  0.50501505
   0.49792802  0.38940235  0.44708271
   0.32389733  0.39802299  0.58083545
   0.50338758  0.43031338  0.66624007
   0.47482764  0.33209760  0.60670835
   0.31288962  0.56691243  0.57409447
   0.49764171  0.56882196  0.65481009
   0.45398312  0.65385871  0.58586027
   0.48201462  0.55757297  0.45164237
   0.60067294  0.42364433  0.53562873
   0.67219888  0.62669402  0.49701157
   0.46487163  0.34418694  0.39302029
Direct configuration=    19
   0.37474149  0.53152035  0.58867348
   0.38024176  0.44237272  0.59335237
   0.47250781  0.40505908  0.60446605
   0.46148813  0.58148626  0.59172579
   0.51899808  0.54360237  0.51351991
   0.52986034  0.43935940  0.52449688
   0.60472509  0.58872109  0.50499593
   0.49801852  0.38945035  0.44703438
   0.32375824  0.39814734  0.58126110
   0.50340016  0.43014330  0.66633246
   0.47474650  0.33203728  0.60665873
   0.31277887  0.56684923  0.57431146
   0.49754836  0.56900363  0.65475480
   0.45392318  0.65391383  0.58559576
   0.48200499  0.55744258  0.45158636
   0.60069708  0.42353718  0.53557367
   0.67227927  0.62665145  0.49714802
   0.46518046  0.34439827  0.39265845
Direct configuration=    20
   0.37472196  0.53154885  0.58869902
   0.38023705  0.44241683  0.59354285
   0.47249741  0.40499330  0.60451122
   0.46143759  0.58157400  0.59155783
   0.51902164  0.54354872  0.51345809
   0.52987936  0.43929134  0.52453061
   0.60476507  0.58869743  0.50496815
   0.49813059  0.38949728  0.44693433
   0.32356480  0.39832040  0.58187269
   0.50341930  0.42989988  0.66645664
   0.47463015  0.33195474  0.60658860
   0.31262437  0.56676046  0.57462076
   0.49741756  0.56926637  0.65467141
   0.45383692  0.65398982  0.58521602
   0.48199751  0.55725688  0.45150689
   0.60072633  0.42338773  0.53549870
   0.67236060  0.62657202  0.49734812
   0.46563446  0.34472211  0.39216752
Direct configuration=    21
   0.37471280  0.53155773  0.58871965
   0.38023648  0.44243344  0.59363124
   0.47249159  0.40496822  0.60451844
   0.46141249  0.58160838  0.59148148
   0.51902577  0.54351984  0.51343692
   0.52987700  0.43926393  0.52453931
   0.60478700  0.58867922  0.50496600
   0.49817931  0.38952719  0.44689068
   0.32349702  0.39838227  0.58214840
   0.50343339  0.42979508  0.66648847
   0.47457918  0.33192724  0.60656038
   0.31256811  0.56672587  0.57475188
   0.49736912  0.56938959  0.65462377
   0.45379674  0.65401658  0.58504603
   0.48201182  0.55717912  0.45147170
   0.60072427  0.42333169  0.53547471
   0.67237597  0.62652672  0.49744266
   0.46582023  0.34486359  0.39195387
Direct configuration=    22
   0.37469139  0.53158513  0.58875745
   0.38023216  0.44247830  0.59384125
   0.47247922  0.40490099  0.60455408
   0.46135698  0.58169838  0.59129746
   0.51904801  0.54345992  0.51337642
   0.52988541  0.43919266  0.52456856
   0.60479995  0.58862550  0.50495200
   0.49830484  0.38959561  0.44679222
   0.32330641  0.39855117  0.58281436
   0.50346110  0.42953668  0.66659798
   0.47445396  0.33184663  0.60648683
   0.31241320  0.56663592  0.57508012
   0.49723873  0.56968083  0.65452262
   0.45370093  0.65409058  0.58463292
   0.48202261  0.55698402  0.45138448
   0.60074046  0.42318159  0.53540485
   0.67247246  0.62644705  0.49766137
   0.46628823  0.34520350  0.39141866
Direct configuration=    23
   0.37466878  0.53160718  0.58881165
   0.38022795  0.44251797  0.59405806
   0.47246345  0.40483940  0.60456951
   0.46129826  0.58178073  0.59111068
   0.51905820  0.54339263  0.51332585
   0.52987676  0.43912728  0.52458969
   0.60482899  0.58856233  0.50495752
   0.49841612  0.38966119  0.44666883
   0.32314629  0.39869105  0.58348954
   0.50350037  0.42928597  0.66666754
   0.47432886  0.33177919  0.60641616
   0.31227819  0.56655625  0.57539999
   0.49712678  0.56998444  0.65440362
   0.45360060  0.65415156  0.58421440
   0.48206357  0.55679798  0.45129445
   0.60073190  0.42305054  0.53535503
   0.67252673  0.62634577  0.49788937
   0.46674138  0.34555575  0.39091031
Direct configuration=    24
   0.37465319  0.53161838  0.58885629
   0.38022364  0.44254081  0.59420180
   0.47245033  0.40480206  0.60456909
   0.46125948  0.58182919  0.59098975
   0.51906111  0.54334739  0.51329707
   0.52985916  0.43908527  0.52459312
   0.60482433  0.58849726  0.50497893
   0.49850049  0.38973167  0.44661127
   0.32306070  0.39876012  0.58392973
   0.50353497  0.42913230  0.66668889
   0.47424791  0.33174067  0.60637069
   0.31220200  0.56651309  0.57560209
   0.49706805  0.57018748  0.65431762
   0.45353184  0.65418265  0.58394008
   0.48210747  0.55668563  0.45123175
   0.60071259  0.42297834  0.53533759
   0.67256690  0.62628382  0.49803788
   0.46700402  0.34576265  0.39056531
Direct configuration=    25
   0.37465411  0.53161527  0.58885846
   0.38022289  0.44253637  0.59418909
   0.47244878  0.40480751  0.60456222
   0.46126256  0.58182053  0.59100275
   0.51905497  0.54334935  0.51330326
   0.52985559  0.43909365  0.52459175
   0.60483848  0.58850379  0.50498604
   0.49847686  0.38970893  0.44658729
   0.32308182  0.39873765  0.58388576
   0.50353744  0.42915435  0.66667003
   0.47425568  0.33174816  0.60637513
   0.31221787  0.56652425  0.57557790
   0.49708435  0.57017089  0.65432050
   0.45353637  0.65417366  0.58396627
   0.48211492  0.55670294  0.45123519
   0.60070507  0.42299544  0.53535164
   0.67254011  0.62627851  0.49802447
   0.46697809  0.34575629  0.39062922
Direct configuration=    26
   0.37464936  0.53161732  0.58887462
   0.38022124  0.44254154  0.59422995
   0.47244334  0.40479801  0.60455818
   0.46125140  0.58183165  0.59096979
   0.51905393  0.54333569  0.51329661
   0.52984635  0.43908256  0.52458983
   0.60483097  0.58847788  0.50499931
   0.49850219  0.38973455  0.44657386
   0.32306491  0.39874684  0.58400799
   0.50355107  0.42911627  0.66666617
   0.47423271  0.33173903  0.60636207
   0.31220122  0.56651677  0.57563189
   0.49707473  0.57022958  0.65429356
   0.45351545  0.65417897  0.58388899
   0.48213396  0.55667576  0.45121550
   0.60069419  0.42298125  0.53535465
   0.67255044  0.62626105  0.49806598
   0.46704207  0.34580918  0.39053232
Direct configuration=    27
   0.37460290  0.53162732  0.58904818
   0.38019105  0.44257579  0.59460082
   0.47238125  0.40472110  0.60449980
   0.46115050  0.58191309  0.59068919
   0.51901890  0.54320204  0.51324839
   0.52974843  0.43900980  0.52456951
   0.60484157  0.58826113  0.50515419
   0.49867491  0.38989821  0.44633484
   0.32296096  0.39875498  0.58507279
   0.50369501  0.42881833  0.66656634
   0.47402469  0.33166778  0.60624149
   0.31208716  0.56648905  0.57609242
   0.49704246  0.57075625  0.65404123
   0.45331948  0.65420139  0.58320750
   0.48234653  0.55646796  0.45102687
   0.60056130  0.42290336  0.53544646
   0.67255204  0.62606141  0.49842241
   0.46759446  0.34630786  0.38979049
Direct configuration=    28
   0.37460878  0.53162729  0.58901729
   0.38019517  0.44257065  0.59454149
   0.47239052  0.40473014  0.60451398
   0.46116689  0.58190210  0.59073466
   0.51902810  0.54322604  0.51325224
   0.52976809  0.43901974  0.52457762
   0.60483837  0.58829894  0.50512591
   0.49863835  0.38984980  0.44634826
   0.32296740  0.39875935  0.58490754
   0.50367151  0.42886373  0.66659175
   0.47405484  0.33167425  0.60625725
   0.31209933  0.56649331  0.57602613
   0.49704510  0.57067329  0.65408456
   0.45334944  0.65420178  0.58331202
   0.48230631  0.55649898  0.45105503
   0.60058878  0.42291177  0.53543257
   0.67256023  0.62609518  0.49836457
   0.46753047  0.34624842  0.38992249
Direct configuration=    29
   0.37459960  0.53162913  0.58904687
   0.38018894  0.44257603  0.59460495
   0.47237901  0.40471567  0.60450480
   0.46114971  0.58191612  0.59068762
   0.51902317  0.54320398  0.51324204
   0.52974957  0.43900350  0.52457163
   0.60483407  0.58825889  0.50515435
   0.49868006  0.38989075  0.44632536
   0.32294701  0.39875880  0.58509178
   0.50369827  0.42881448  0.66657529
   0.47401717  0.33165972  0.60623422
   0.31207851  0.56649118  0.57610818
   0.49704202  0.57076504  0.65404196
   0.45331396  0.65420625  0.58319272
   0.48234232  0.55646489  0.45102024
   0.60056697  0.42289906  0.53545312
   0.67256682  0.62606254  0.49842543
   0.46762020  0.34632295  0.38977568
Direct configuration=    30
   0.37459241  0.53163101  0.58906586
   0.38018268  0.44257929  0.59464836
   0.47237039  0.40470395  0.60450184
   0.46113782  0.58192715  0.59065583
   0.51901943  0.54318936  0.51323293
   0.52974107  0.43899316  0.52457235
   0.60484724  0.58824267  0.50517029
   0.49869724  0.38989499  0.44628088
   0.32292738  0.39876085  0.58521976
   0.50371624  0.42878029  0.66656863
   0.47398893  0.33164660  0.60621570
   0.31206094  0.56649080  0.57616913
   0.49703974  0.57082839  0.65401488
   0.45328836  0.65421090  0.58310853
   0.48236342  0.55644124  0.45099500
   0.60055519  0.42288898  0.53546983
   0.67256291  0.62603375  0.49846630
   0.46770156  0.34639309  0.38969621
Direct configuration=    31
   0.37458418  0.53163279  0.58908816
   0.38017565  0.44258295  0.59469896
   0.47236104  0.40469074  0.60449782
   0.46112423  0.58193971  0.59061864
   0.51901719  0.54317352  0.51322232
   0.52972961  0.43897965  0.52456931
   0.60484080  0.58821155  0.50519087
   0.49873054  0.38992055  0.44625670
   0.32290573  0.39876291  0.58536717
   0.50373711  0.42874094  0.66656003
   0.47395701  0.33163200  0.60619481
   0.31204120  0.56648977  0.57623879
   0.49703693  0.57090137  0.65398301
   0.45325867  0.65421582  0.58301171
   0.48238826  0.55641431  0.45096582
   0.60054102  0.42287717  0.53548769
   0.67257646  0.62601043  0.49851260
   0.46778136  0.34645695  0.38958263
Direct configuration=    32
   0.37442426  0.53166561  0.58951965
   0.38003864  0.44265721  0.59567606
   0.47217658  0.40443448  0.60441958
   0.46085981  0.58218125  0.58989673
   0.51895291  0.54285673  0.51301999
   0.52951755  0.43873257  0.52453826
   0.60489336  0.58770915  0.50557025
   0.49927592  0.39026466  0.44559597
   0.32248444  0.39880782  0.58822777
   0.50414094  0.42797547  0.66639436
   0.47333653  0.33134969  0.60578971
   0.31165862  0.56647091  0.57759599
   0.49698149  0.57231957  0.65336351
   0.45268224  0.65431157  0.58113392
   0.48286984  0.55589275  0.45040350
   0.60026694  0.42264869  0.53584003
   0.67269266  0.62547626  0.49942391
   0.46942178  0.34781547  0.38753825
Direct configuration=    33
   0.37445579  0.53165733  0.58943124
   0.38006424  0.44263780  0.59547868
   0.47221624  0.40448578  0.60443890
   0.46091230  0.58213304  0.59004230
   0.51896578  0.54292372  0.51305567
   0.52956154  0.43878085  0.52454175
   0.60489405  0.58782117  0.50548829
   0.49914890  0.39017204  0.44570938
   0.32257317  0.39880680  0.58764978
   0.50406320  0.42813162  0.66642869
   0.47346484  0.33140607  0.60587428
   0.31173586  0.56646943  0.57732706
   0.49698955  0.57203513  0.65348448
   0.45279226  0.65429001  0.58151453
   0.48276937  0.55600412  0.45051556
   0.60032406  0.42268889  0.53575916
   0.67266877  0.62557871  0.49925129
   0.46909320  0.34755783  0.38797286
Direct configuration=    34
   0.37443490  0.53165976  0.58948735
   0.38004689  0.44264703  0.59560707
   0.47219331  0.40445218  0.60442975
   0.46087697  0.58216445  0.58994649
   0.51895838  0.54288398  0.51302630
   0.52953295  0.43874595  0.52453376
   0.60489606  0.58775499  0.50553603
   0.49922435  0.39022350  0.44563846
   0.32251853  0.39881639  0.58802463
   0.50411830  0.42803212  0.66640753
   0.47338541  0.33136881  0.60582273
   0.31168522  0.56646412  0.57750824
   0.49698058  0.57222223  0.65340110
   0.45271292  0.65430153  0.58126895
   0.48283067  0.55593938  0.45044097
   0.60028883  0.42265543  0.53579952
   0.67269356  0.62551053  0.49937703
   0.46929802  0.34772824  0.38769275
Direct configuration=    35
   0.37443124  0.53165769  0.58949734
   0.38004492  0.44264796  0.59563207
   0.47219056  0.40444524  0.60442962
   0.46086872  0.58217027  0.58992594
   0.51895746  0.54287892  0.51301667
   0.52952838  0.43873805  0.52453006
   0.60490149  0.58774882  0.50554071
   0.49923231  0.39022388  0.44562237
   0.32250793  0.39882380  0.58809714
   0.50413162  0.42801372  0.66640459
   0.47337265  0.33136103  0.60581469
   0.31167436  0.56645902  0.57754902
   0.49697627  0.57226015  0.65338199
   0.45269175  0.65430229  0.58122199
   0.48283938  0.55593208  0.45042516
   0.60028339  0.42264385  0.53579912
   0.67270296  0.62549518  0.49940997
   0.46933394  0.34776501  0.38764442
Direct configuration=    36
   0.37439984  0.53165660  0.58958454
   0.38002242  0.44265811  0.59583779
   0.47216018  0.40439060  0.60442014
   0.46080761  0.58221936  0.58976560
   0.51894764  0.54282432  0.51295714
   0.52948822  0.43868110  0.52451346
   0.60492170  0.58766503  0.50560159
   0.49932351  0.39026406  0.44548557
   0.32241996  0.39885711  0.58869265
   0.50422670  0.42785760  0.66637442
   0.47325504  0.33130019  0.60573884
   0.31159025  0.56643688  0.57785738
   0.49695352  0.57256293  0.65323979
   0.45254581  0.65431530  0.58083278
   0.48292608  0.55584616  0.45030190
   0.60023184  0.42257402  0.53583599
   0.67275591  0.62537856  0.49963670
   0.46965565  0.34805795  0.38723341
Direct configuration=    37
   0.37440264  0.53165511  0.58957867
   0.38002585  0.44265717  0.59582495
   0.47216429  0.40439405  0.60442095
   0.46081067  0.58221608  0.58977343
   0.51894947  0.54282972  0.51295764
   0.52948996  0.43868256  0.52451050
   0.60491799  0.58767178  0.50559510
   0.49932507  0.39027289  0.44551764
   0.32242502  0.39885899  0.58865426
   0.50422208  0.42786800  0.66637708
   0.47326498  0.33130395  0.60574543
   0.31159450  0.56643504  0.57784308
   0.49695290  0.57254478  0.65324651
   0.45254999  0.65431346  0.58085788
   0.48291812  0.55585582  0.45030885
   0.60023625  0.42257450  0.53582672
   0.67276111  0.62538656  0.49962862
   0.46962096  0.34802543  0.38724237
Direct configuration=    38
   0.37439761  0.53165503  0.58959325
   0.38002247  0.44265918  0.59585887
   0.47215949  0.40438507  0.60441886
   0.46080068  0.58222420  0.58974631
   0.51894752  0.54282031  0.51294773
   0.52948366  0.43867420  0.52450942
   0.60492491  0.58765961  0.50560533
   0.49933483  0.39027181  0.44548347
   0.32241011  0.39886486  0.58875320
   0.50423744  0.42784186  0.66637211
   0.47324564  0.33129406  0.60573290
   0.31158027  0.56643143  0.57789543
   0.49694894  0.57259519  0.65322272
   0.45252530  0.65431578  0.58079307
   0.48293242  0.55584168  0.45028861
   0.60022768  0.42256303  0.53583293
   0.67276685  0.62536450  0.49966752
   0.46968004  0.34808070  0.38718263
Direct configuration=    39
   0.37439443  0.53165462  0.58960348
   0.38002069  0.44266008  0.59588296
   0.47215688  0.40437888  0.60441774
   0.46079347  0.58222988  0.58972641
   0.51894703  0.54281481  0.51293955
   0.52947907  0.43866750  0.52450656
   0.60492512  0.58764942  0.50561157
   0.49934649  0.39027855  0.44547244
   0.32239956  0.39887019  0.58882233
   0.50424840  0.42782354  0.66636871
   0.47323297  0.33128717  0.60572451
   0.31156993  0.56642761  0.57793406
   0.49694544  0.57263074  0.65320516
   0.45250613  0.65431685  0.58074749
   0.48294157  0.55583304  0.45027398
   0.60022213  0.42255368  0.53583464
   0.67277722  0.62535134  0.49969602
   0.46971428  0.34811177  0.38713229
Direct configuration=    40
   0.37438728  0.53165379  0.58962591
   0.38001642  0.44266239  0.59593542
   0.47215092  0.40436527  0.60441500
   0.46077780  0.58224249  0.58968341
   0.51894508  0.54280209  0.51292236
   0.52946920  0.43865337  0.52450128
   0.60493244  0.58763051  0.50562530
   0.49936924  0.39028938  0.44544156
   0.32237674  0.39888123  0.58897290
   0.50427206  0.42778363  0.66636141
   0.47320511  0.33127224  0.60570607
   0.31154759  0.56641987  0.57801752
   0.49693819  0.57270803  0.65316732
   0.45246517  0.65431948  0.58064821
   0.48296193  0.55581360  0.45024236
   0.60020985  0.42253407  0.53583953
   0.67279300  0.62531953  0.49975767
   0.46979223  0.34818280  0.38702733
Direct configuration=    41
   0.37437840  0.53165240  0.58965406
   0.38001143  0.44266550  0.59600093
   0.47214380  0.40434821  0.60441114
   0.46075804  0.58225835  0.58962914
   0.51894275  0.54278650  0.51290028
   0.52945761  0.43863675  0.52449592
   0.60494260  0.58760753  0.50564257
   0.49939019  0.39029269  0.44538882
   0.32234829  0.39889586  0.58916106
   0.50430181  0.42773383  0.66635260
   0.47317104  0.33125369  0.60568332
   0.31151944  0.56640960  0.57812366
   0.49692877  0.57280498  0.65311946
   0.45241275  0.65432292  0.58052383
   0.48298701  0.55579004  0.45020274
   0.60019467  0.42250920  0.53584440
   0.67281266  0.62527825  0.49983701
   0.46989551  0.34827985  0.38690767
Direct configuration=    42
   0.37430419  0.53164238  0.58988847
   0.37996841  0.44269007  0.59654660
   0.47208365  0.40420689  0.60437921
   0.46059433  0.58239066  0.58918077
   0.51892468  0.54265544  0.51271942
   0.52935420  0.43849019  0.52443737
   0.60500234  0.58739985  0.50579057
   0.49962388  0.39040828  0.44506635
   0.32211341  0.39901148  0.59072795
   0.50454908  0.42731928  0.66627698
   0.47288502  0.33109904  0.60549301
   0.31128685  0.56632651  0.57899792
   0.49685294  0.57361060  0.65272331
   0.45198194  0.65435196  0.57948865
   0.48319932  0.55558946  0.44987269