<?xml version="1.0" encoding="ISO-8859-1"?>
<modeling>
 <generator>
  <i name="program" type="string">vasp </i>
  <i name="version" type="string">6.3.2  </i>
  <i name="subversion" type="string">27Jun22 (build Oct 05 2023 17:59:42) gamma-only                       parallel </i>
  <i name="platform" type="string">LinuxIFC </i>
  <i name="date" type="string">2024 04 09 </i>
  <i name="time" type="string">10:49:28 </i>
 </generator>
 <incar>
  <i type="string" name="PREC">NORMAL</i>
  <i type="string" name="ALGO">Fast</i>
  <i type="int" name="ISPIN">     1</i>
  <i type="int" name="IBRION">     1</i>
  <i name="EDIFF">      0.00001000</i>
  <i name="EDIFFG">     -0.05000000</i>
  <i type="int" name="NSW">  5000</i>
  <i name="ENCUT">    400.00000000</i>
  <i name="POTIM">      0.10000000</i>
  <i type="int" name="ISMEAR">     0</i>
  <i name="SIGMA">      0.05000000</i>
  <i type="logical" name="LWAVE"> F  </i>
  <i type="logical" name="LCHARG"> F  </i>
  <i type="string" name="GGA">PE</i>
  <i type="int" name="IVDW">    11</i>
  <i name="SPRING">     -5.00000000</i>
 </incar>
 <primitive_cell>
  <structure name="primitive_cell" >
   <crystal>
    <varray name="basis" >
     <v>      15.00000000       0.00000000       0.00000000 </v>
     <v>       0.00000000      15.00000000       0.00000000 </v>
     <v>       0.00000000       0.00000000      15.00000000 </v>
    </varray>
    <i name="volume">   3375.00000000 </i>
    <varray name="rec_basis" >
     <v>       0.06666667       0.00000000       0.00000000 </v>
     <v>       0.00000000       0.06666667       0.00000000 </v>
     <v>       0.00000000       0.00000000       0.06666667 </v>
    </varray>
   </crystal>
   <varray name="positions" >
    <v>       0.37484336       0.53121783       0.58914590 </v>
    <v>       0.38040252       0.44193918       0.59155925 </v>
    <v>       0.47172269       0.40600851       0.60300606 </v>
    <v>       0.46139153       0.58064078       0.59358167 </v>
    <v>       0.51894020       0.54308351       0.51476079 </v>
    <v>       0.52929011       0.44052595       0.52378630 </v>
    <v>       0.60399123       0.58796011       0.50574417 </v>
    <v>       0.49808965       0.38967778       0.44769400 </v>
    <v>       0.32636971       0.39588169       0.57617873 </v>
    <v>       0.50221012       0.43163889       0.66374735 </v>
    <v>       0.47536689       0.33381339       0.60725405 </v>
    <v>       0.31490874       0.56843183       0.57193151 </v>
    <v>       0.49903702       0.56691913       0.65474889 </v>
    <v>       0.45514790       0.65263392       0.58865894 </v>
    <v>       0.48341124       0.55883235       0.45283651 </v>
    <v>       0.59958141       0.42614523       0.53815958 </v>
    <v>       0.67019822       0.62680888       0.49422949 </v>
    <v>       0.46261167       0.34188307       0.39766773 </v>
   </varray>
  </structure>
  <varray name="primitive_index" >
   <v type="int" >        1 </v>
   <v type="int" >        2 </v>
   <v type="int" >        3 </v>
   <v type="int" >        4 </v>
   <v type="int" >        5 </v>
   <v type="int" >        6 </v>
   <v type="int" >        7 </v>
   <v type="int" >        8 </v>
   <v type="int" >        9 </v>
   <v type="int" >       10 </v>
   <v type="int" >       11 </v>
   <v type="int" >       12 </v>
   <v type="int" >       13 </v>
   <v type="int" >       14 </v>
   <v type="int" >       15 </v>
   <v type="int" >       16 </v>
   <v type="int" >       17 </v>
   <v type="int" >       18 </v>
  </varray>
 </primitive_cell>
 <kpoints>
  <generation param="Monkhorst-Pack">
   <v type="int" name="divisions">       1        1        1 </v>
   <v name="usershift">      0.00000000       0.00000000       0.00000000 </v>
   <v name="genvec1">      1.00000000       0.00000000       0.00000000 </v>
   <v name="genvec2">      0.00000000       1.00000000       0.00000000 </v>
   <v name="genvec3">      0.00000000       0.00000000       1.00000000 </v>
   <v name="shift">      0.00000000       0.00000000       0.00000000 </v>
  </generation>
  <varray name="kpointlist" >
   <v>       0.00000000       0.00000000       0.00000000 </v>
  </varray>
  <varray name="weights" >
   <v>       1.00000000 </v>
  </varray>
 </kpoints>
 <parameters>
  <separator name="general" >
   <i type="string" name="SYSTEM">unknown system</i>
   <i type="logical" name="LCOMPAT"> F  </i>
  </separator>
  <separator name="electronic" >
   <i type="string" name="PREC">normal</i>
   <i name="ENMAX">    400.00000000</i>
   <i name="ENAUG">    644.87300000</i>
   <i name="EDIFF">      0.00001000</i>
   <i type="int" name="IALGO">    68</i>
   <i type="int" name="IWAVPR">    11</i>
   <i type="int" name="NBANDS">    35</i>
   <i type="int" name="NBANDSLOW">    -1</i>
   <i type="int" name="NBANDSHIGH">    -1</i>
   <i name="NELECT">     50.00000000</i>
   <i type="int" name="TURBO">     0</i>
   <i type="int" name="IRESTART">     0</i>
   <i type="int" name="NREBOOT">     0</i>
   <i type="int" name="NMIN">     0</i>
   <i name="EREF">      0.00000000</i>
   <separator name="electronic smearing" >
    <i type="int" name="ISMEAR">     0</i>
    <i name="SIGMA">      0.05000000</i>
    <i name="KSPACING">      0.50000000</i>
    <i type="logical" name="KGAMMA"> T  </i>
    <i type="logical" name="KBLOWUP"> T  </i>
   </separator>
   <separator name="electronic projectors" >
    <i type="logical" name="LREAL"> F  </i>
    <v name="ROPT">      0.00000000      0.00000000      0.00000000</v>
    <i type="int" name="LMAXPAW">  -100</i>
    <i type="int" name="LMAXMIX">     2</i>
    <i type="logical" name="NLSPLINE"> F  </i>
   </separator>
   <separator name="electronic startup" >
    <i type="int" name="ISTART">     0</i>
    <i type="int" name="ICHARG">     2</i>
    <i type="int" name="INIWAV">     1</i>
   </separator>
   <separator name="electronic spin" >
    <i type="int" name="ISPIN">     1</i>
    <i type="logical" name="LNONCOLLINEAR"> F  </i>
    <v name="MAGMOM">      1.00000000      1.00000000      1.00000000      1.00000000      1.00000000      1.00000000      1.00000000      1.00000000      1.00000000      1.00000000      1.00000000      1.00000000      1.00000000      1.00000000      1.00000000      1.00000000      1.00000000      1.00000000</v>
    <i name="NUPDOWN">     -1.00000000</i>
    <i type="logical" name="LSORBIT"> F  </i>
    <v name="SAXIS">      0.00000000      0.00000000      1.00000000</v>
    <i type="logical" name="LSPIRAL"> F  </i>
    <v name="QSPIRAL">      0.00000000      0.00000000      0.00000000</v>
    <i type="logical" name="LZEROZ"> F  </i>
   </separator>
   <separator name="electronic exchange-correlation" >
    <i type="logical" name="LASPH"> F  </i>
    <i type="logical" name="LMETAGGA"> F  </i>
   </separator>
   <separator name="electronic convergence" >
    <i type="int" name="NELM">    60</i>
    <i type="int" name="NELMDL">    -5</i>
    <i type="int" name="NELMIN">     2</i>
    <i name="ENINI">    400.00000000</i>
    <separator name="electronic convergence detail" >
     <i type="logical" name="LDIAG"> T  </i>
     <i type="logical" name="LSUBROT"> F  </i>
     <i name="WEIMIN">      0.00100000</i>
     <i name="EBREAK">      0.00000007</i>
     <i name="DEPER">      0.30000000</i>
     <i type="int" name="NRMM">     4</i>
     <i name="TIME">      0.40000000</i>
    </separator>
   </separator>
   <separator name="electronic mixer" >
    <i name="AMIX">      0.40000000</i>
    <i name="BMIX">      1.00000000</i>
    <i name="AMIN">      0.10000000</i>
    <i name="AMIX_MAG">      1.60000000</i>
    <i name="BMIX_MAG">      1.00000000</i>
    <separator name="electronic mixer details" >
     <i type="int" name="IMIX">     4</i>
     <i type="logical" name="MIXFIRST"> F  </i>
     <i type="int" name="MAXMIX">   -45</i>
     <i name="WC">    100.00000000</i>
     <i type="int" name="INIMIX">     1</i>
     <i type="int" name="MIXPRE">     1</i>
     <i type="int" name="MREMOVE">     5</i>
    </separator>
   </separator>
   <separator name="electronic dipolcorrection" >
    <i type="logical" name="LDIPOL"> F  </i>
    <i type="logical" name="LMONO"> F  </i>
    <i type="int" name="IDIPOL">     0</i>
    <i name="EPSILON">      1.00000000</i>
    <v name="DIPOL">   -100.00000000   -100.00000000   -100.00000000</v>
    <i name="EFIELD">      0.00000000</i>
   </separator>
  </separator>
  <separator name="grids" >
   <i type="int" name="NGX">    80</i>
   <i type="int" name="NGY">    80</i>
   <i type="int" name="NGZ">    80</i>
   <i type="int" name="NGXF">   160</i>
   <i type="int" name="NGYF">   160</i>
   <i type="int" name="NGZF">   160</i>
   <i type="logical" name="ADDGRID"> F  </i>
  </separator>
  <separator name="ionic" >
   <i type="int" name="NSW">  5000</i>
   <i type="int" name="IBRION">     1</i>
   <i type="int" name="MDALGO">     0</i>
   <i type="int" name="ISIF">     2</i>
   <i name="PSTRESS">      0.00000000</i>
   <i name="EDIFFG">     -0.05000000</i>
   <i type="int" name="NFREE">     0</i>
   <i name="POTIM">      0.10000000</i>
   <i name="SMASS">     -3.00000000</i>
   <i name="SCALEE">      1.00000000</i>
  </separator>
  <separator name="ionic md" >
   <i name="TEBEG">      0.00010000</i>
   <i name="TEEND">      0.00010000</i>
   <i type="int" name="NBLOCK">     1</i>
   <i type="int" name="KBLOCK">  5000</i>
   <i type="int" name="NPACO">   256</i>
   <i name="APACO">     10.00000000</i>
  </separator>
  <separator name="symmetry" >
   <i type="int" name="ISYM">     2</i>
   <i name="SYMPREC">      0.00001000</i>
  </separator>
  <separator name="dos" >
   <i type="int" name="LORBIT">     0</i>
   <v name="RWIGS">     -1.00000000     -1.00000000     -1.00000000</v>
   <i type="int" name="NEDOS">   301</i>
   <i name="EMIN">     10.00000000</i>
   <i name="EMAX">    -10.00000000</i>
   <i name="EFERMI">      0.00000000</i>
  </separator>
  <separator name="writing" >
   <i type="int" name="NWRITE">     2</i>
   <i type="logical" name="LWAVE"> F  </i>
   <i type="logical" name="LDOWNSAMPLE"> F  </i>
   <i type="logical" name="LCHARG"> F  </i>
   <i type="logical" name="LPARD"> F  </i>
   <i type="logical" name="LVTOT"> F  </i>
   <i type="logical" name="LVHAR"> F  </i>
   <i type="logical" name="LELF"> F  </i>
   <i type="logical" name="LOPTICS"> F  </i>
   <v name="STM">      0.00000000      0.00000000      0.00000000      0.00000000      0.00000000      0.00000000      0.00000000</v>
  </separator>
  <separator name="performance" >
   <i type="int" name="NPAR">     1</i>
   <i type="int" name="NSIM">     4</i>
   <i type="int" name="NBLK">    -1</i>
   <i type="logical" name="LPLANE"> T  </i>
   <i type="logical" name="LSCALAPACK"> T  </i>
   <i type="logical" name="LSCAAWARE"> F  </i>
   <i type="logical" name="LSCALU"> F  </i>
   <i type="logical" name="LASYNC"> F  </i>
   <i type="logical" name="LORBITALREAL"> F  </i>
  </separator>
  <separator name="miscellaneous" >
   <i type="int" name="IDIOT">     3</i>
   <i type="int" name="PHON_NSTRUCT">    -1</i>
   <i type="logical" name="LMUSIC"> F  </i>
   <v name="POMASS">     12.01100000      1.00000000     14.00100000</v>
   <v name="DARWINR">      0.00000000      0.00000000      0.00000000</v>
   <v name="DARWINV">      1.00000000      1.00000000      1.00000000</v>
   <i type="logical" name="LCORR"> T  </i>
  </separator>
  <i type="logical" name="GGA_COMPAT"> T  </i>
  <i type="logical" name="LBERRY"> F  </i>
  <i type="int" name="ICORELEVEL">     0</i>
  <i type="logical" name="LDAU"> F  </i>
  <i type="int" name="I_CONSTRAINED_M">     0</i>
  <separator name="electronic exchange-correlation" >
   <i type="string" name="GGA">PE</i>
   <i type="int" name="VOSKOWN">     0</i>
   <i type="logical" name="LHFCALC"> F  </i>
   <i type="string" name="PRECFOCK"></i>
   <i type="logical" name="LSYMGRAD"> F  </i>
   <i type="logical" name="LHFONE"> F  </i>
   <i type="logical" name="LRHFCALC"> F  </i>
   <i type="logical" name="LTHOMAS"> F  </i>
   <i type="logical" name="LMODELHF"> F  </i>
   <i type="logical" name="LFOCKACE"> F  </i>
   <i name="ENCUT4O">     -1.00000000</i>
   <i type="int" name="EXXOEP">     0</i>
   <i type="int" name="FOURORBIT">     0</i>
   <i name="AEXX">      0.00000000</i>
   <i name="HFALPHA">      0.00000000</i>
   <i name="MCALPHA">      0.00000000</i>
   <i name="ALDAX">      1.00000000</i>
   <i name="AGGAX">      1.00000000</i>
   <i name="ALDAC">      1.00000000</i>
   <i name="AGGAC">      1.00000000</i>
   <i type="int" name="NKREDX">     1</i>
   <i type="int" name="NKREDY">     1</i>
   <i type="int" name="NKREDZ">     1</i>
   <i type="logical" name="SHIFTRED"> F  </i>
   <i type="logical" name="ODDONLY"> F  </i>
   <i type="logical" name="EVENONLY"> F  </i>
   <i type="int" name="LMAXFOCK">     0</i>
   <i type="int" name="NMAXFOCKAE">     0</i>
   <i type="logical" name="LFOCKAEDFT"> F  </i>
   <i name="HFSCREEN">      0.00000000</i>
   <i name="HFSCREENC">      0.00000000</i>
   <i type="int" name="NBANDSGWLOW">     0</i>
  </separator>
  <separator name="vdW DFT" >
   <i type="logical" name="LUSE_VDW"> F  </i>
   <i name="Zab_VDW">     -0.84910000</i>
   <i name="PARAM1">      0.12340000</i>
   <i name="PARAM2">      1.00000000</i>
   <i name="PARAM3">      0.00000000</i>
  </separator>
  <separator name="model GW" >
   <i type="int" name="MODEL_GW">     0</i>
   <i name="MODEL_EPS0">    112.50000000</i>
   <i name="MODEL_ALPHA">      1.00000000</i>
  </separator>
  <separator name="linear response parameters" >
   <i type="logical" name="LEPSILON"> F  </i>
   <i type="logical" name="LRPA"> F  </i>
   <i type="logical" name="LNABLA"> F  </i>
   <i type="logical" name="LVEL"> F  </i>
   <i name="CSHIFT">      0.10000000</i>
   <i name="OMEGAMAX">     -1.00000000</i>
   <i name="DEG_THRESHOLD">      0.00200000</i>
   <i name="RTIME">     -0.10000000</i>
   <i name="WPLASMAI">      0.00000000</i>
   <v name="DFIELD">      0.00000000      0.00000000      0.00000000</v>
   <v name="WPLASMA">      0.00000000      0.00000000      0.00000000      0.00000000      0.00000000      0.00000000      0.00000000      0.00000000      0.00000000</v>
  </separator>
  <separator name="orbital magnetization" >
   <i type="logical" name="NUCIND"> F  </i>
   <v name="MAGPOS">      0.00000000      0.00000000      0.00000000</v>
   <i type="logical" name="LNICSALL"> T  </i>
   <i type="logical" name="ORBITALMAG"> F  </i>
   <i type="logical" name="LMAGBLOCH"> F  </i>
   <i type="logical" name="LCHIMAG"> F  </i>
   <i type="logical" name="LGAUGE"> T  </i>
   <i type="int" name="MAGATOM">     0</i>
   <v name="MAGDIPOL">      0.00000000      0.00000000      0.00000000</v>
   <v name="AVECCONST">      0.00000000      0.00000000      0.00000000</v>
  </separator>
  <separator name="response functions" >
   <i type="logical" name="LFINITE_TEMPERATURE"> F  </i>
   <i type="logical" name="LADDER"> F  </i>
   <i type="logical" name="LRPAFORCE"> F  </i>
   <i type="logical" name="LFXC"> F  </i>
   <i type="logical" name="LHARTREE"> T  </i>
   <i type="int" name="IBSE">     0</i>
   <v type="int" name="KPOINT">    -1     0     0     0</v>
   <i type="logical" name="LTCTC"> F  </i>
   <i type="logical" name="LTCTE"> F  </i>
   <i type="logical" name="LTETE"> F  </i>
   <i type="logical" name="LTRIPLET"> F  </i>
   <i type="logical" name="LFXCEPS"> F  </i>
   <i type="logical" name="LFXHEG"> F  </i>
   <i type="int" name="NATURALO">     2</i>
   <i type="logical" name="LHOLEGF"> F  </i>
   <i type="logical" name="L2ORDER"> F  </i>
   <i type="logical" name="LDMP1"> F  </i>
   <i type="logical" name="LMP2LT"> F  </i>
   <i type="logical" name="LSMP2LT"> F  </i>
   <i type="logical" name="LGWLF"> F  </i>
   <i name="ENCUTGW">     -2.00000000</i>
   <i name="ENCUTGWSOFT">     -2.00000000</i>
   <i name="ENCUTLF">     -1.00000000</i>
   <i type="logical" name="LESF_SPLINES"> F  </i>
   <i type="int" name="LMAXMP2">    -1</i>
   <i name="SCISSOR">      0.00000000</i>
   <i type="int" name="NOMEGA">     0</i>
   <i type="int" name="NOMEGAR">     0</i>
   <i type="int" name="NBANDSGW">    -1</i>
   <i type="int" name="NBANDSO">    -1</i>
   <i type="int" name="NBANDSV">    -1</i>
   <i type="int" name="NELMGW">     1</i>
   <i type="int" name="NELMHF">     1</i>
   <i type="int" name="DIM">     3</i>
   <i type="int" name="IESPILON">     4</i>
   <i type="int" name="ANTIRES">     0</i>
   <i name="OMEGAMAX">    -30.00000000</i>
   <i name="OMEGAMIN">    -30.00000000</i>
   <i name="OMEGATL">   -200.00000000</i>
   <i type="int" name="OMEGAGRID">     0</i>
   <i name="CSHIFT">     -0.10000000</i>
   <i type="logical" name="LSELFENERGY"> F  </i>
   <i type="logical" name="LSPECTRAL"> F  </i>
   <i type="logical" name="LSPECTRALGW"> F  </i>
   <i type="logical" name="LSINGLES"> F  </i>
   <i type="logical" name="LFERMIGW"> F  </i>
   <i type="logical" name="ODDONLYGW"> F  </i>
   <i type="logical" name="EVENONLYGW"> F  </i>
   <i type="int" name="NKREDLFX">     1</i>
   <i type="int" name="NKREDLFY">     1</i>
   <i type="int" name="NKREDLFZ">     1</i>
   <i type="int" name="MAXMEM">  2800</i>
   <i type="int" name="TELESCOPE">     0</i>
   <i type="int" name="NTAUPAR">    -1</i>
   <i type="int" name="NOMEGAPAR">    -1</i>
   <i name="DAMP_NEWTON">      0.80000001</i>
   <i name="LAMBDA">      1.00000000</i>
  </separator>
  <separator name="External order field" >
   <i name="OFIELD_KAPPA">      0.00000000</i>
   <v name="OFIELD_K">      0.00000000      0.00000000      0.00000000</v>
   <i name="OFIELD_Q6_NEAR">      0.00000000</i>
   <i name="OFIELD_Q6_FAR">      0.00000000</i>
   <i name="OFIELD_A">      0.00000000</i>
  </separator>
  <separator name="optional k-points parameters" >
   <i type="int" name="KPOINTS_OPT_MODE">     1</i>
   <i type="logical" name="LKPOINTS_OPT"> F  </i>
  </separator>
 </parameters>
 <atominfo>
  <atoms>      18 </atoms>
  <types>       3 </types>
  <array name="atoms" >
   <dimension dim="1">ion</dimension>
   <field type="string">element</field>
   <field type="int">atomtype</field>
   <set>
    <rc><c>C </c><c>   1</c></rc>
    <rc><c>C </c><c>   1</c></rc>
    <rc><c>C </c><c>   1</c></rc>
    <rc><c>C </c><c>   1</c></rc>
    <rc><c>C </c><c>   1</c></rc>
    <rc><c>C </c><c>   1</c></rc>
    <rc><c>C </c><c>   1</c></rc>
    <rc><c>C </c><c>   1</c></rc>
    <rc><c>H </c><c>   2</c></rc>
    <rc><c>H </c><c>   2</c></rc>
    <rc><c>H </c><c>   2</c></rc>
    <rc><c>H </c><c>   2</c></rc>
    <rc><c>H </c><c>   2</c></rc>
    <rc><c>H </c><c>   2</c></rc>
    <rc><c>H </c><c>   2</c></rc>
    <rc><c>H </c><c>   2</c></rc>
    <rc><c>N </c><c>   3</c></rc>
    <rc><c>N </c><c>   3</c></rc>
   </set>
  </array>
  <array name="atomtypes" >
   <dimension dim="1">type</dimension>
   <field type="int">atomspertype</field>
   <field type="string">element</field>
   <field>mass</field>
   <field>valence</field>
   <field type="string">pseudopotential</field>
   <set>
    <rc><c>   8</c><c>C </c><c>     12.01100000</c><c>      4.00000000</c><c>  PAW_PBE C 08Apr2002                   </c></rc>
    <rc><c>   8</c><c>H </c><c>      1.00000000</c><c>      1.00000000</c><c>  PAW_PBE H 15Jun2001                   </c></rc>
    <rc><c>   2</c><c>N </c><c>     14.00100000</c><c>      5.00000000</c><c>  PAW_PBE N 08Apr2002                   </c></rc>
   </set>
  </array>
 </atominfo>
 <structure name="initialpos" >
  <crystal>
   <varray name="basis" >
    <v>      15.00000000       0.00000000       0.00000000 </v>
    <v>       0.00000000      15.00000000       0.00000000 </v>
    <v>       0.00000000       0.00000000      15.00000000 </v>
   </varray>
   <i name="volume">   3375.00000000 </i>
   <varray name="rec_basis" >
    <v>       0.06666667       0.00000000       0.00000000 </v>
    <v>       0.00000000       0.06666667       0.00000000 </v>
    <v>       0.00000000       0.00000000       0.06666667 </v>
   </varray>
  </crystal>
  <varray name="positions" >
   <v>       0.37484336       0.53121783       0.58914590 </v>
   <v>       0.38040252       0.44193918       0.59155925 </v>
   <v>       0.47172269       0.40600851       0.60300606 </v>
   <v>       0.46139153       0.58064078       0.59358167 </v>
   <v>       0.51894020       0.54308351       0.51476079 </v>
   <v>       0.52929011       0.44052595       0.52378630 </v>
   <v>       0.60399123       0.58796011       0.50574417 </v>
   <v>       0.49808965       0.38967778       0.44769400 </v>
   <v>       0.32636971       0.39588169       0.57617873 </v>
   <v>       0.50221012       0.43163889       0.66374735 </v>
   <v>       0.47536689       0.33381339       0.60725405 </v>
   <v>       0.31490874       0.56843183       0.57193151 </v>
   <v>       0.49903702       0.56691913       0.65474889 </v>
   <v>       0.45514790       0.65263392       0.58865894 </v>
   <v>       0.48341124       0.55883235       0.45283651 </v>
   <v>       0.59958141       0.42614523       0.53815958 </v>
   <v>       0.67019822       0.62680888       0.49422949 </v>
   <v>       0.46261167       0.34188307       0.39766773 </v>
  </varray>
 </structure>
 <calculation>
  <scstep>
   <time name="dav">    4.75    4.81</time>
   <time name="total">    6.90    7.20</time>
   <energy>
    <i name="alphaZ">      3.36120243 </i>
    <i name="ewald">   3205.07667509 </i>
    <i name="hartreedc">  -4448.54079186 </i>
    <i name="XCdc">    161.03384832 </i>
    <i name="pawpsdc">   1295.11405375 </i>
    <i name="pawaedc">  -1302.12229068 </i>
    <i name="eentropy">     -0.00000163 </i>
    <i name="bandstr">   -269.66226035 </i>
    <i name="atom">   1805.79685712 </i>
    <i name="e_fr_energy">    450.05729220 </i>
    <i name="e_wo_entrp">    450.05729383 </i>
    <i name="e_0_energy">    450.05729302 </i>
   </energy>
  </scstep>
  <scstep>
   <time name="dav">    5.03    5.25</time>
   <time name="total">    5.04    5.25</time>
   <energy>
    <i name="e_fr_energy">     77.53375468 </i>
    <i name="e_wo_entrp">     77.53375468 </i>
    <i name="e_0_energy">     77.53375468 </i>
   </energy>
  </scstep>
  <scstep>
   <time name="dav">    2.70    3.02</time>
   <time name="total">    2.70    3.02</time>
   <energy>
    <i name="e_fr_energy">   -104.80590525 </i>
    <i name="e_wo_entrp">   -104.80590525 </i>
    <i name="e_0_energy">   -104.80590525 </i>
   </energy>
  </scstep>
  <scstep>
   <time name="dav">    2.52    2.52</time>
   <time name="total">    2.52    2.52</time>
   <energy>
    <i name="e_fr_energy">   -126.44750024 </i>
    <i name="e_wo_entrp">   -126.44750024 </i>
    <i name="e_0_energy">   -126.44750024 </i>
   </energy>
  </scstep>
  <scstep>
   <time name="dav">    2.58    2.59</time>
   <time name="total">    2.85    2.86</time>
   <energy>
    <i name="e_fr_energy">   -126.87126297 </i>
    <i name="e_wo_entrp">   -126.87126297 </i>
    <i name="e_0_energy">   -126.87126297 </i>
   </energy>
  </scstep>
  <scstep>
   <time name="diag">    0.33    0.33</time>
   <time name="diis">    2.14    2.14</time>
   <time name="orth">    0.01    0.01</time>
   <time name="total">    4.20    4.20</time>
   <energy>
    <i name="e_fr_energy">   -118.01249533 </i>
    <i name="e_wo_entrp">   -118.01249533 </i>
    <i name="e_0_energy">   -118.01249533 </i>
   </energy>
  </scstep>
  <scstep>
   <time name="diag">    0.35    0.35</time>
   <time name="diis">    2.17    2.17</time>
   <time name="orth">    0.01    0.01</time>
   <time name="total">    4.39    4.39</time>
   <energy>
    <i name="e_fr_energy">   -115.88451371 </i>
    <i name="e_wo_entrp">   -115.88451371 </i>
    <i name="e_0_energy">   -115.88451371 </i>
   </energy>
  </scstep>
  <scstep>
   <time name="diag">    0.36    0.36</time>
   <time name="diis">    3.31    3.31</time>
   <time name="orth">    0.01    0.01</time>
   <time name="total">    5.53    5.55</time>
   <energy>
    <i name="e_fr_energy">   -115.68632191 </i>
    <i name="e_wo_entrp">   -115.68632191 </i>
    <i name="e_0_energy">   -115.68632191 </i>
   </energy>
  </scstep>
  <scstep>
   <time name="diag">    0.30    0.30</time>
   <time name="diis">    2.18    2.18</time>
   <time name="orth">    0.01    0.01</time>
   <time name="total">    4.58    4.58</time>
   <energy>
    <i name="e_fr_energy">   -115.60779415 </i>
    <i name="e_wo_entrp">   -115.60779415 </i>
    <i name="e_0_energy">   -115.60779415 </i>
   </energy>
  </scstep>
  <scstep>
   <time name="diag">    0.45    0.45</time>
   <time name="diis">    2.47    2.47</time>
   <time name="orth">    0.01    0.01</time>
   <time name="total">    4.72    4.72</time>
   <energy>
    <i name="e_fr_energy">   -115.61835731 </i>
    <i name="e_wo_entrp">   -115.61835731 </i>
    <i name="e_0_energy">   -115.61835731 </i>
   </energy>
  </scstep>
  <scstep>
   <time name="diag">    0.31    0.31</time>
   <time name="diis">    2.44    2.44</time>
   <time name="orth">    0.01    0.01</time>
   <time name="total">    4.47    4.47</time>
   <energy>
    <i name="e_fr_energy">   -115.63183510 </i>
    <i name="e_wo_entrp">   -115.63183510 </i>
    <i name="e_0_energy">   -115.63183510 </i>
   </energy>
  </scstep>
  <scstep>
   <time name="diag">    0.32    0.32</time>
   <time name="diis">    2.29    2.29</time>
   <time name="orth">    0.01    0.01</time>
   <time name="total">    4.37    4.37</time>
   <energy>
    <i name="e_fr_energy">   -115.63192697 </i>
    <i name="e_wo_entrp">   -115.63192697 </i>
    <i name="e_0_energy">   -115.63192697 </i>
   </energy>
  </scstep>
  <scstep>
   <time name="diag">    0.35    0.35</time>
   <time name="diis">    2.31    2.31</time>
   <time name="orth">    0.01    0.01</time>
   <time name="total">    4.47    4.47</time>
   <energy>
    <i name="e_fr_energy">   -115.64800444 </i>
    <i name="e_wo_entrp">   -115.64800444 </i>
    <i name="e_0_energy">   -115.64800444 </i>
   </energy>
  </scstep>
  <scstep>
   <time name="diag">    0.34    0.34</time>
   <time name="diis">    2.35    2.36</time>
   <time name="orth">    0.01    0.01</time>
   <time name="total">    4.52    4.52</time>
   <energy>
    <i name="e_fr_energy">   -115.64764986 </i>
    <i name="e_wo_entrp">   -115.64764986 </i>
    <i name="e_0_energy">   -115.64764986 </i>
   </energy>
  </scstep>
  <scstep>
   <time name="diag">    0.38    0.38</time>
   <time name="diis">    2.29    2.29</time>
   <time name="orth">    0.01    0.01</time>
   <time name="total">    4.52    4.52</time>
   <energy>
    <i name="e_fr_energy">   -115.65823181 </i>
    <i name="e_wo_entrp">   -115.65823181 </i>
    <i name="e_0_energy">   -115.65823181 </i>
   </energy>
  </scstep>
  <scstep>
   <time name="diag">    0.35    0.35</time>
   <time name="diis">    2.69    2.69</time>
   <time name="orth">    0.01    0.01</time>
   <time name="total">    4.87    4.88</time>
   <energy>
    <i name="e_fr_energy">   -115.65914365 </i>
    <i name="e_wo_entrp">   -115.65914365 </i>
    <i name="e_0_energy">   -115.65914365 </i>
   </energy>
  </scstep>
  <scstep>
   <time name="diag">    0.34    0.34</time>
   <time name="diis">    2.20    2.20</time>
   <time name="orth">    0.01    0.01</time>
   <time name="total">    4.31    4.31</time>
   <energy>
    <i name="e_fr_energy">   -115.65974663 </i>
    <i name="e_wo_entrp">   -115.65974663 </i>
    <i name="e_0_energy">   -115.65974663 </i>
   </energy>
  </scstep>
  <scstep>
   <time name="diag">    0.29    0.29</time>
   <time name="diis">    2.06    2.06</time>
   <time name="orth">    0.01    0.01</time>
   <time name="total">    4.27    4.27</time>
   <energy>
    <i name="e_fr_energy">   -115.66188320 </i>
    <i name="e_wo_entrp">   -115.66188320 </i>
    <i name="e_0_energy">   -115.66188320 </i>
   </energy>
  </scstep>
  <scstep>
   <time name="diag">    0.93    0.93</time>
   <time name="diis">    2.10    2.10</time>
   <time name="orth">    0.01    0.01</time>
   <time name="total">    6.30    6.30</time>
   <energy>
    <i name="e_fr_energy">   -115.66237488 </i>
    <i name="e_wo_entrp">   -115.66237488 </i>
    <i name="e_0_energy">   -115.66237488 </i>
   </energy>
  </scstep>
  <scstep>
   <time name="diag">    0.35    0.35</time>
   <time name="diis">    2.04    2.04</time>
   <time name="orth">    0.01    0.01</time>
   <time name="total">    4.36    4.36</time>
   <energy>
    <i name="e_fr_energy">   -115.66273923 </i>
    <i name="e_wo_entrp">   -115.66273923 </i>
    <i name="e_0_energy">   -115.66273923 </i>
   </energy>
  </scstep>
  <scstep>
   <time name="diag">    0.37    0.37</time>
   <time name="diis">    1.57    1.57</time>
   <time name="orth">    0.01    0.01</time>
   <time name="total">    3.81    3.81</time>
   <energy>
    <i name="e_fr_energy">   -115.66276740 </i>
    <i name="e_wo_entrp">   -115.66276740 </i>
    <i name="e_0_energy">   -115.66276740 </i>
   </energy>
  </scstep>
  <scstep>
   <time name="diag">    0.38    0.38</time>
   <time name="diis">    1.60    1.60</time>
   <time name="orth">    0.01    0.01</time>
   <time name="total">    3.87    3.87</time>
   <energy>
    <i name="e_fr_energy">   -115.66286193 </i>
    <i name="e_wo_entrp">   -115.66286193 </i>
    <i name="e_0_energy">   -115.66286193 </i>
   </energy>
  </scstep>
  <scstep>
   <time name="diag">    0.27    0.27</time>
   <time name="diis">    1.10    1.10</time>
   <time name="orth">    0.01    0.01</time>
   <time name="total">    2.94    2.94</time>
   <energy>
    <i name="e_fr_energy">   -115.66288927 </i>
    <i name="e_wo_entrp">   -115.66288927 </i>
    <i name="e_0_energy">   -115.66288927 </i>
   </energy>
  </scstep>
  <scstep>
   <time name="diag">    0.25    0.25</time>
   <time name="diis">    0.91    0.91</time>
   <time name="orth">    0.01    0.01</time>
   <time name="total">    2.44    2.44</time>
   <energy>
    <i name="e_fr_energy">   -115.66290601 </i>
    <i name="e_wo_entrp">   -115.66290601 </i>
    <i name="e_0_energy">   -115.66290601 </i>
   </energy>
  </scstep>
  <scstep>
   <time name="diag">    0.25    0.25</time>
   <time name="diis">    0.65    0.65</time>
   <time name="orth">    0.01    0.01</time>
   <time name="total">    1.94    1.95</time>
   <energy>
    <i name="alphaZ">      3.36120243 </i>
    <i name="ewald">   3205.07667509 </i>
    <i name="hartreedc">  -4653.01760867 </i>
    <i name="XCdc">    171.11343240 </i>
    <i name="pawpsdc">   4398.32164518 </i>
    <i name="pawaedc">  -4406.65923943 </i>
    <i name="eentropy">     -0.00000000 </i>
    <i name="bandstr">   -639.65587276 </i>
    <i name="atom">   1805.79685712 </i>
    <i name="e_fr_energy">   -115.66290864 </i>
    <i name="e_wo_entrp">   -115.66290864 </i>
    <i name="e_0_energy">   -115.66290864 </i>
   </energy>
  </scstep>
  <structure>
   <crystal>
    <varray name="basis" >
     <v>      15.00000000       0.00000000       0.00000000 </v>
     <v>       0.00000000      15.00000000       0.00000000 </v>
     <v>       0.00000000       0.00000000      15.00000000 </v>
    </varray>
    <i name="volume">   3375.00000000 </i>
    <varray name="rec_basis" >
     <v>       0.06666667       0.00000000       0.00000000 </v>
     <v>       0.00000000       0.06666667       0.00000000 </v>
     <v>       0.00000000       0.00000000       0.06666667 </v>
    </varray>
   </crystal>
   <varray name="positions" >
    <v>       0.37484336       0.53121783       0.58914590 </v>
    <v>       0.38040252       0.44193918       0.59155925 </v>
    <v>       0.47172269       0.40600851       0.60300606 </v>
    <v>       0.46139153       0.58064078       0.59358167 </v>
    <v>       0.51894020       0.54308351       0.51476079 </v>
    <v>       0.52929011       0.44052595       0.52378630 </v>
    <v>       0.60399123       0.58796011       0.50574417 </v>
    <v>       0.49808965       0.38967778       0.44769400 </v>
    <v>       0.32636971       0.39588169       0.57617873 </v>
    <v>       0.50221012       0.43163889       0.66374735 </v>
    <v>       0.47536689       0.33381339       0.60725405 </v>
    <v>       0.31490874       0.56843183       0.57193151 </v>
    <v>       0.49903702       0.56691913       0.65474889 </v>
    <v>       0.45514790       0.65263392       0.58865894 </v>
    <v>       0.48341124       0.55883235       0.45283651 </v>
    <v>       0.59958141       0.42614523       0.53815958 </v>
    <v>       0.67019822       0.62680888       0.49422949 </v>
    <v>       0.46261167       0.34188307       0.39766773 </v>
   </varray>
  </structure>
  <varray name="forces" >
   <v>      -0.08094033       0.06585978      -0.09466139 </v>
   <v>      -0.32937634       0.10250744       0.02837743 </v>
   <v>       0.21613668      -0.13334045       0.07225047 </v>
   <v>       0.20776144      -0.22778618      -0.27284172 </v>
   <v>      -0.21555664       0.37675343      -0.11365865 </v>
   <v>       0.22541992      -0.18317189       0.40560998 </v>
   <v>      -0.02515794       0.01301848      -0.01991153 </v>
   <v>       0.00857181      -0.08743561      -0.12713799 </v>
   <v>      -0.21970513       0.15962148       0.17459163 </v>
   <v>       0.17977965       0.11311295       0.40883509 </v>
   <v>      -0.04884550      -0.36533565      -0.11407012 </v>
   <v>      -0.19294903      -0.10043647       0.13672306 </v>
   <v>      -0.01534155       0.03159554       0.26464839 </v>
   <v>      -0.10641452       0.32172624      -0.14788359 </v>
   <v>      -0.20758179      -0.04413265      -0.13816801 </v>
   <v>       0.12309845      -0.20255876      -0.15469278 </v>
   <v>       0.39066640       0.16075252       0.06439891 </v>
   <v>       0.09043443      -0.00075019      -0.37240918 </v>
  </varray>
  <varray name="stress" >
   <v>       0.19465861      -0.07222909      -0.04426686 </v>
   <v>      -0.07222909      -0.17640285      -0.01804646 </v>
   <v>      -0.04426686      -0.01804647      -0.27185131 </v>
  </varray>
  <energy>
   <i name="e_fr_energy">   -115.91307350 </i>
   <i name="e_wo_entrp">   -115.91307350 </i>
   <i name="e_0_energy">   -115.91307350 </i>
  </energy>
  <time name="totalsc">  138.52  139.73</time>
 </calculation>
 <calculation>
  <scstep>
   <time name="dav">    4.57    5.01</time>
   <time name="total">    7.00    7.46</time>
   <energy>
    <i name="alphaZ">      3.36120243 </i>
    <i name="ewald">   3200.13653494 </i>
    <i name="hartreedc">  -4649.00964719 </i>
    <i name="XCdc">    171.05345956 </i>
    <i name="pawpsdc">   4398.32902664 </i>
    <i name="pawaedc">  -4406.66660602 </i>
    <i name="eentropy">     -0.00000000 </i>
    <i name="bandstr">   -638.67886915 </i>
    <i name="atom">   1805.79685712 </i>
    <i name="e_fr_energy">   -115.67804167 </i>
    <i name="e_wo_entrp">   -115.67804167 </i>
    <i name="e_0_energy">   -115.67804167 </i>
   </energy>
  </scstep>
  <scstep>
   <time name="diag">    0.86    0.87</time>
   <time name="diis">    4.82    4.84</time>
   <time name="orth">    0.04    0.05</time>
   <time name="total">    8.94    9.17</time>
   <energy>
    <i name="e_fr_energy">   -115.67826569 </i>
    <i name="e_wo_entrp">   -115.67826569 </i>
    <i name="e_0_energy">   -115.67826569 </i>
   </energy>
  </scstep>
  <scstep>
   <time name="diag">    0.63    0.65</time>
   <time name="diis">    3.92    4.36</time>
   <time name="orth">    0.01    0.01</time>
   <time name="total">    7.17    7.74</time>
   <energy>
    <i name="e_fr_energy">   -115.67826747 </i>
    <i name="e_wo_entrp">   -115.67826747 </i>
    <i name="e_0_energy">   -115.67826747 </i>
   </energy>
  </scstep>
  <scstep>
   <time name="diag">    0.35    0.35</time>
   <time name="diis">    2.19    2.19</time>
   <time name="orth">    0.01    0.01</time>
   <time name="total">    4.39    4.42</time>
   <energy>
    <i name="e_fr_energy">   -115.67830455 </i>
    <i name="e_wo_entrp">   -115.67830455 </i>
    <i name="e_0_energy">   -115.67830455 </i>
   </energy>
  </scstep>
  <scstep>
   <time name="diag">    0.29    0.29</time>
   <time name="diis">    1.85    1.85</time>
   <time name="orth">    0.01    0.01</time>
   <time name="total">    3.97    3.97</time>
   <energy>
    <i name="e_fr_energy">   -115.67831477 </i>
    <i name="e_wo_entrp">   -115.67831477 </i>
    <i name="e_0_energy">   -115.67831477 </i>
   </energy>
  </scstep>
  <scstep>
   <time name="diag">    0.47    0.47</time>
   <time name="diis">    1.32    1.32</time>
   <time name="orth">    0.01    0.01</time>
   <time name="total">    4.20    4.20</time>
   <energy>
    <i name="alphaZ">      3.36120243 </i>
    <i name="ewald">   3200.13653494 </i>
    <i name="hartreedc">  -4648.39722962 </i>
    <i name="XCdc">    171.02725590 </i>
    <i name="pawpsdc">   4381.64510548 </i>
    <i name="pawaedc">  -4389.97253455 </i>
    <i name="eentropy">     -0.00000000 </i>
    <i name="bandstr">   -639.27551046 </i>
    <i name="atom">   1805.79685712 </i>
    <i name="e_fr_energy">   -115.67831875 </i>
    <i name="e_wo_entrp">   -115.67831875 </i>
    <i name="e_0_energy">   -115.67831875 </i>
   </energy>
  </scstep>
  <structure>
   <crystal>
    <varray name="basis" >
     <v>      15.00000000       0.00000000       0.00000000 </v>
     <v>       0.00000000      15.00000000       0.00000000 </v>
     <v>       0.00000000       0.00000000      15.00000000 </v>
    </varray>
    <i name="volume">   3375.00000000 </i>
    <varray name="rec_basis" >
     <v>       0.06666667       0.00000000       0.00000000 </v>
     <v>       0.00000000       0.06666667       0.00000000 </v>
     <v>       0.00000000       0.00000000       0.06666667 </v>
    </varray>
   </crystal>
   <varray name="positions" >
    <v>       0.37481182       0.53124660       0.58908410 </v>
    <v>       0.38023386       0.44199429       0.59162500 </v>
    <v>       0.47190246       0.40592036       0.60307529 </v>
    <v>       0.46150278       0.58051497       0.59341287 </v>
    <v>       0.51880313       0.54331380       0.51463137 </v>
    <v>       0.52940940       0.44039946       0.52396491 </v>
    <v>       0.60397796       0.58794758       0.50575963 </v>
    <v>       0.49796445       0.38962419       0.44759172 </v>
    <v>       0.32628774       0.39597009       0.57631332 </v>
    <v>       0.50242861       0.43174244       0.66396373 </v>
    <v>       0.47538028       0.33357713       0.60723640 </v>
    <v>       0.31482127       0.56830622       0.57193477 </v>
    <v>       0.49905058       0.56696798       0.65489085 </v>
    <v>       0.45502122       0.65286228       0.58858715 </v>
    <v>       0.48328151       0.55883690       0.45270624 </v>
    <v>       0.59962631       0.42595991       0.53792972 </v>
    <v>       0.67043130       0.62691054       0.49442544 </v>
    <v>       0.46247601       0.34188907       0.39746676 </v>
   </varray>
  </structure>
  <varray name="forces" >
   <v>      -0.05589922       0.03491609      -0.08753395 </v>
   <v>      -0.13829600       0.06598423       0.04594938 </v>
   <v>       0.12107694      -0.10130910       0.13786625 </v>
   <v>       0.14929403       0.00485299      -0.17670531 </v>
   <v>      -0.13289412       0.20302054      -0.06569065 </v>
   <v>       0.08835964      -0.13646658       0.23159844 </v>
   <v>       0.32467884       0.24595060      -0.08930914 </v>
   <v>       0.02550521      -0.07172378      -0.07030207 </v>
   <v>      -0.25450990       0.12606487       0.16922135 </v>
   <v>       0.13035267       0.05992666       0.32992454 </v>
   <v>      -0.04481127      -0.29313317      -0.10365343 </v>
   <v>      -0.20145339      -0.07047118       0.13116093 </v>
   <v>      -0.04665398       0.03840261       0.18062310 </v>
   <v>      -0.08191189       0.14810333      -0.13413668 </v>
   <v>      -0.21141272      -0.04175535      -0.15512476 </v>
   <v>       0.18013367      -0.19476432      -0.13260169 </v>
   <v>       0.03682713      -0.05359643       0.12232757 </v>
   <v>       0.11161436       0.03599798      -0.33361389 </v>
  </varray>
  <varray name="stress" >
   <v>      -0.06038683      -0.14536547      -0.10147224 </v>
   <v>      -0.14536547      -0.43715791      -0.01684694 </v>
   <v>      -0.10147224      -0.01684694      -0.38123109 </v>
  </varray>
  <energy>
   <i name="e_fr_energy">   -115.92849352 </i>
   <i name="e_wo_entrp">   -115.92849352 </i>
   <i name="e_0_energy">   -115.92849352 </i>
  </energy>
  <time name="totalsc">   54.88   56.20</time>
 </calculation>
 <calculation>
  <scstep>
   <time name="dav">    2.21    2.21</time>
   <time name="total">    3.99    4.00</time>
   <energy>
    <i name="alphaZ">      3.36120243 </i>
    <i name="ewald">   3197.04749750 </i>
    <i name="hartreedc">  -4645.56519715 </i>
    <i name="XCdc">    170.99724493 </i>
    <i name="pawpsdc">   4381.64518888 </i>
    <i name="pawaedc">  -4389.97255175 </i>
    <i name="eentropy">     -0.00000000 </i>
    <i name="bandstr">   -638.99795158 </i>
    <i name="atom">   1805.79685712 </i>
    <i name="e_fr_energy">   -115.68770961 </i>
    <i name="e_wo_entrp">   -115.68770961 </i>
    <i name="e_0_energy">   -115.68770961 </i>
   </energy>
  </scstep>
  <scstep>
   <time name="diag">    0.38    0.38</time>
   <time name="diis">    2.31    2.31</time>
   <time name="orth">    0.01    0.01</time>
   <time name="total">    4.54    4.54</time>
   <energy>
    <i name="e_fr_energy">   -115.68776291 </i>
    <i name="e_wo_entrp">   -115.68776291 </i>
    <i name="e_0_energy">   -115.68776291 </i>
   </energy>
  </scstep>
  <scstep>
   <time name="diag">    0.36    0.36</time>
   <time name="diis">    2.35    2.35</time>
   <time name="orth">    0.01    0.01</time>
   <time name="total">    4.55    4.55</time>
   <energy>
    <i name="e_fr_energy">   -115.68773655 </i>
    <i name="e_wo_entrp">   -115.68773655 </i>
    <i name="e_0_energy">   -115.68773655 </i>
   </energy>
  </scstep>
  <scstep>
   <time name="diag">    0.36    0.36</time>
   <time name="diis">    3.08    3.08</time>
   <time name="orth">    0.03    0.03</time>
   <time name="total">    5.50    5.50</time>
   <energy>
    <i name="e_fr_energy">   -115.68775705 </i>
    <i name="e_wo_entrp">   -115.68775705 </i>
    <i name="e_0_energy">   -115.68775705 </i>
   </energy>
  </scstep>
  <scstep>
   <time name="diag">    0.33    0.33</time>
   <time name="diis">    1.51    1.51</time>
   <time name="orth">    0.01    0.01</time>
   <time name="total">    3.57    3.57</time>
   <energy>
    <i name="alphaZ">      3.36120243 </i>
    <i name="ewald">   3197.04749750 </i>
    <i name="hartreedc">  -4645.47320890 </i>
    <i name="XCdc">    170.99815127 </i>
    <i name="pawpsdc">   4379.05051241 </i>
    <i name="pawaedc">  -4387.37842108 </i>
    <i name="eentropy">     -0.00000000 </i>
    <i name="bandstr">   -639.09035255 </i>
    <i name="atom">   1805.79685712 </i>
    <i name="e_fr_energy">   -115.68776179 </i>
    <i name="e_wo_entrp">   -115.68776179 </i>
    <i name="e_0_energy">   -115.68776179 </i>
   </energy>
  </scstep>
  <structure>
   <crystal>
    <varray name="basis" >
     <v>      15.00000000       0.00000000       0.00000000 </v>
     <v>       0.00000000      15.00000000       0.00000000 </v>
     <v>       0.00000000       0.00000000      15.00000000 </v>
    </varray>
    <i name="volume">   3375.00000000 </i>
    <varray name="rec_basis" >
     <v>       0.06666667       0.00000000       0.00000000 </v>
     <v>       0.00000000       0.06666667       0.00000000 </v>
     <v>       0.00000000       0.00000000       0.06666667 </v>
    </varray>
   </crystal>
   <varray name="positions" >
    <v>       0.37479117       0.53125671       0.58902661 </v>
    <v>       0.38017881       0.44202976       0.59169433 </v>
    <v>       0.47201719       0.40585216       0.60318223 </v>
    <v>       0.46158471       0.58053506       0.59329963 </v>
    <v>       0.51871648       0.54343921       0.51454338 </v>
    <v>       0.52944425       0.44030147       0.52405276 </v>
    <v>       0.60419395       0.58809263       0.50572447 </v>
    <v>       0.49787161       0.38957876       0.44752872 </v>
    <v>       0.32616901       0.39604033       0.57644372 </v>
    <v>       0.50260108       0.43180831       0.66414258 </v>
    <v>       0.47538888       0.33338369       0.60721382 </v>
    <v>       0.31471817       0.56820883       0.57195083 </v>
    <v>       0.49903905       0.56701685       0.65498639 </v>
    <v>       0.45491954       0.65297641       0.58851676 </v>
    <v>       0.48314591       0.55883687       0.45256944 </v>
    <v>       0.59971630       0.42578588       0.53773218 </v>
    <v>       0.67044051       0.62687327       0.49463534 </v>
    <v>       0.46238719       0.34191879       0.39727914 </v>
   </varray>
  </structure>
  <varray name="forces" >
   <v>      -0.02879429       0.04231288      -0.07949280 </v>
   <v>      -0.07081566       0.02649841       0.05135926 </v>
   <v>       0.07898046      -0.09405443       0.15839358 </v>
   <v>       0.10949322       0.05191108      -0.12161269 </v>
   <v>      -0.00977034       0.16993322      -0.07070099 </v>
   <v>       0.06049072      -0.10236000       0.15495651 </v>
   <v>      -0.23563600      -0.06741662      -0.00813934 </v>
   <v>       0.01677486      -0.07922410      -0.05867105 </v>
   <v>      -0.24406441       0.12355755       0.17298978 </v>
   <v>       0.09915294       0.02394258       0.27787314 </v>
   <v>      -0.04318780      -0.23171711      -0.09216466 </v>
   <v>      -0.19545685      -0.05978043       0.12841476 </v>
   <v>      -0.06679410       0.04888950       0.12458448 </v>
   <v>      -0.06881589       0.09853868      -0.12967015 </v>
   <v>      -0.18842565      -0.04487656      -0.13561943 </v>
   <v>       0.17144878      -0.17995285      -0.12508486 </v>
   <v>       0.47983403       0.20265146       0.04605683 </v>
   <v>       0.13558596       0.07114673      -0.29347237 </v>
  </varray>
  <varray name="stress" >
   <v>      -0.02494926      -0.05596258      -0.19368160 </v>
   <v>      -0.05596259      -0.51857018      -0.05024700 </v>
   <v>      -0.19368160      -0.05024700      -0.46826897 </v>
  </varray>
  <energy>
   <i name="e_fr_energy">   -115.93796638 </i>
   <i name="e_wo_entrp">   -115.93796638 </i>
   <i name="e_0_energy">   -115.93796638 </i>
  </energy>
  <time name="totalsc">   44.82   44.85</time>
 </calculation>
 <calculation>
  <scstep>
   <time name="dav">    2.02    2.02</time>
   <time name="total">    3.79    3.79</time>
   <energy>
    <i name="alphaZ">      3.36120243 </i>
    <i name="ewald">   3190.47766110 </i>
    <i name="hartreedc">  -4640.09665517 </i>
    <i name="XCdc">    170.92110489 </i>
    <i name="pawpsdc">   4378.14678014 </i>
    <i name="pawaedc">  -4386.47475119 </i>
    <i name="eentropy">     -0.00000000 </i>
    <i name="bandstr">   -637.83277995 </i>
    <i name="atom">   1805.79685712 </i>
    <i name="e_fr_energy">   -115.70058064 </i>
    <i name="e_wo_entrp">   -115.70058064 </i>
    <i name="e_0_energy">   -115.70058064 </i>
   </energy>
  </scstep>
  <scstep>
   <time name="diag">    0.38    0.38</time>
   <time name="diis">    2.27    2.27</time>
   <time name="orth">    0.01    0.01</time>
   <time name="total">    4.47    4.47</time>
   <energy>
    <i name="e_fr_energy">   -115.70084868 </i>
    <i name="e_wo_entrp">   -115.70084868 </i>
    <i name="e_0_energy">   -115.70084868 </i>
   </energy>
  </scstep>
  <scstep>
   <time name="diag">    0.35    0.35</time>
   <time name="diis">    2.24    2.24</time>
   <time name="orth">    0.01    0.01</time>
   <time name="total">    4.35    4.35</time>
   <energy>
    <i name="e_fr_energy">   -115.70088924 </i>
    <i name="e_wo_entrp">   -115.70088924 </i>
    <i name="e_0_energy">   -115.70088924 </i>
   </energy>
  </scstep>
  <scstep>
   <time name="diag">    0.36    0.36</time>
   <time name="diis">    2.34    2.34</time>
   <time name="orth">    0.01    0.01</time>
   <time name="total">    4.39    4.39</time>
   <energy>
    <i name="e_fr_energy">   -115.70094836 </i>
    <i name="e_wo_entrp">   -115.70094836 </i>
    <i name="e_0_energy">   -115.70094836 </i>
   </energy>
  </scstep>
  <scstep>
   <time name="diag">    0.97    0.97</time>
   <time name="diis">    4.63    4.63</time>
   <time name="orth">    0.03    0.03</time>
   <time name="total">    8.58    8.59</time>
   <energy>
    <i name="e_fr_energy">   -115.70096516 </i>
    <i name="e_wo_entrp">   -115.70096516 </i>
    <i name="e_0_energy">   -115.70096516 </i>
   </energy>
  </scstep>
  <scstep>
   <time name="diag">    0.82    0.82</time>
   <time name="diis">    1.77    1.77</time>
   <time name="orth">    0.01    0.01</time>
   <time name="total">    5.40    5.41</time>
   <energy>
    <i name="alphaZ">      3.36120243 </i>
    <i name="ewald">   3190.47766110 </i>
    <i name="hartreedc">  -4639.30044607 </i>
    <i name="XCdc">    170.88702748 </i>
    <i name="pawpsdc">   4357.60757666 </i>
    <i name="pawaedc">  -4365.92284342 </i>
    <i name="eentropy">     -0.00000000 </i>
    <i name="bandstr">   -638.60800750 </i>
    <i name="atom">   1805.79685712 </i>
    <i name="e_fr_energy">   -115.70097219 </i>
    <i name="e_wo_entrp">   -115.70097219 </i>
    <i name="e_0_energy">   -115.70097219 </i>
   </energy>
  </scstep>
  <structure>
   <crystal>
    <varray name="basis" >
     <v>      15.00000000       0.00000000       0.00000000 </v>
     <v>       0.00000000      15.00000000       0.00000000 </v>
     <v>       0.00000000       0.00000000      15.00000000 </v>
    </varray>
    <i name="volume">   3375.00000000 </i>
    <varray name="rec_basis" >
     <v>       0.06666667       0.00000000       0.00000000 </v>
     <v>       0.00000000       0.06666667       0.00000000 </v>
     <v>       0.00000000       0.00000000       0.06666667 </v>
    </varray>
   </crystal>
   <varray name="positions" >
    <v>       0.37477285       0.53128080       0.58893226 </v>
    <v>       0.38012862       0.44206325       0.59181615 </v>
    <v>       0.47218607       0.40573899       0.60338083 </v>
    <v>       0.46170240       0.58060235       0.59313871 </v>
    <v>       0.51865386       0.54363708       0.51439145 </v>
    <v>       0.52948520       0.44015436       0.52415956 </v>
    <v>       0.60416047       0.58811856       0.50572120 </v>
    <v>       0.49771110       0.38949351       0.44742897 </v>
    <v>       0.32596433       0.39616202       0.57667398 </v>
    <v>       0.50287387       0.43189561       0.66442103 </v>
    <v>       0.47540279       0.33309052       0.60717817 </v>
    <v>       0.31453860       0.56804989       0.57198319 </v>
    <v>       0.49900217       0.56710811       0.65511474 </v>
    <v>       0.45475569       0.65313758       0.58839366 </v>
    <v>       0.48292544       0.55883223       0.45234685 </v>
    <v>       0.59986952       0.42549576       0.53739892 </v>
    <v>       0.67078371       0.62699586       0.49493670 </v>
    <v>       0.46226131       0.34199652       0.39697690 </v>
   </varray>
  </structure>
  <varray name="forces" >
   <v>       0.00631836       0.03493468      -0.06585938 </v>
   <v>       0.00304907      -0.00573117       0.05818832 </v>
   <v>       0.02800386      -0.07972846       0.16867625 </v>
   <v>       0.03590607       0.09473046      -0.04694939 </v>
   <v>      -0.00826590       0.04228027      -0.06683955 </v>
   <v>       0.03263665      -0.07491695       0.05424085 </v>
   <v>       0.26422422       0.22927954      -0.09758507 </v>
   <v>       0.02777171      -0.05062471      -0.00510864 </v>
   <v>      -0.21902728       0.12371391       0.18056879 </v>
   <v>       0.05772791      -0.02614958       0.20919817 </v>
   <v>      -0.03931284      -0.14822219      -0.07320862 </v>
   <v>      -0.17874301      -0.04817430       0.12488342 </v>
   <v>      -0.08994487       0.06388175       0.04875492 </v>
   <v>      -0.04996696       0.04527555      -0.12448644 </v>
   <v>      -0.15424056      -0.05242902      -0.09817379 </v>
   <v>       0.14245063      -0.15453427      -0.11641447 </v>
   <v>      -0.00343102      -0.08069044       0.12148341 </v>
   <v>       0.14484396       0.08710494      -0.27136877 </v>
  </varray>
  <varray name="stress" >
   <v>      -0.40023394      -0.17158985      -0.24399460 </v>
   <v>      -0.17158985      -0.79457151      -0.04073809 </v>
   <v>      -0.24399460      -0.04073808      -0.61184154 </v>
  </varray>
  <energy>
   <i name="e_fr_energy">   -115.95115014 </i>
   <i name="e_wo_entrp">   -115.95115014 </i>
   <i name="e_0_energy">   -115.95115014 </i>
  </energy>
  <time name="totalsc">   71.28   71.97</time>
 </calculation>
 <calculation>
  <scstep>
   <time name="dav">    3.03    3.03</time>
   <time name="total">    5.12    5.13</time>
   <energy>
    <i name="alphaZ">      3.36120243 </i>
    <i name="ewald">   3177.63242962 </i>
    <i name="hartreedc">  -4628.17211153 </i>
    <i name="XCdc">    170.75164402 </i>
    <i name="pawpsdc">   4357.33741136 </i>
    <i name="pawaedc">  -4365.65264306 </i>
    <i name="eentropy">     -0.00000000 </i>
    <i name="bandstr">   -636.77484032 </i>
    <i name="atom">   1805.79685712 </i>
    <i name="e_fr_energy">   -115.72005037 </i>
    <i name="e_wo_entrp">   -115.72005037 </i>
    <i name="e_0_energy">   -115.72005037 </i>
   </energy>
  </scstep>
  <scstep>
   <time name="diag">    0.55    0.55</time>
   <time name="diis">    3.12    3.16</time>
   <time name="orth">    0.02    0.03</time>
   <time name="total">    6.31    6.42</time>
   <energy>
    <i name="e_fr_energy">   -115.72133496 </i>
    <i name="e_wo_entrp">   -115.72133496 </i>
    <i name="e_0_energy">   -115.72133496 </i>
   </energy>
  </scstep>
  <scstep>
   <time name="diag">    0.54    0.56</time>
   <time name="diis">    3.98    4.29</time>
   <time name="orth">    0.02    0.03</time>
   <time name="total">    6.93    7.32</time>
   <energy>
    <i name="e_fr_energy">   -115.72164238 </i>
    <i name="e_wo_entrp">   -115.72164238 </i>
    <i name="e_0_energy">   -115.72164238 </i>
   </energy>
  </scstep>
  <scstep>
   <time name="diag">    0.49    0.49</time>
   <time name="diis">    3.52    3.52</time>
   <time name="orth">    0.02    0.02</time>
   <time name="total">    5.93    5.94</time>
   <energy>
    <i name="e_fr_energy">   -115.72188884 </i>
    <i name="e_wo_entrp">   -115.72188884 </i>
    <i name="e_0_energy">   -115.72188884 </i>
   </energy>
  </scstep>
  <scstep>
   <time name="diag">    0.43    0.56</time>
   <time name="diis">    3.37    3.37</time>
   <time name="orth">    0.02    0.03</time>
   <time name="total">    6.20    6.55</time>
   <energy>
    <i name="e_fr_energy">   -115.72193101 </i>
    <i name="e_wo_entrp">   -115.72193101 </i>
    <i name="e_0_energy">   -115.72193101 </i>
   </energy>
  </scstep>
  <scstep>
   <time name="diag">    0.52    0.52</time>
   <time name="diis">    2.69    2.90</time>
   <time name="orth">    0.01    0.01</time>
   <time name="total">    5.41    5.81</time>
   <energy>
    <i name="e_fr_energy">   -115.72194229 </i>
    <i name="e_wo_entrp">   -115.72194229 </i>
    <i name="e_0_energy">   -115.72194229 </i>
   </energy>
  </scstep>
  <scstep>
   <time name="diag">    0.69    0.69</time>
   <time name="diis">    2.17    2.27</time>
   <time name="orth">    0.01    0.01</time>
   <time name="total">    4.70    4.96</time>
   <energy>
    <i name="alphaZ">      3.36120243 </i>
    <i name="ewald">   3177.63242962 </i>
    <i name="hartreedc">  -4627.16452429 </i>
    <i name="XCdc">    170.71584727 </i>
    <i name="pawpsdc">   4329.78214331 </i>
    <i name="pawaedc">  -4338.08438876 </i>
    <i name="eentropy">     -0.00000000 </i>
    <i name="bandstr">   -637.76151210 </i>
    <i name="atom">   1805.79685712 </i>
    <i name="e_fr_energy">   -115.72194539 </i>
    <i name="e_wo_entrp">   -115.72194539 </i>
    <i name="e_0_energy">   -115.72194539 </i>
   </energy>
  </scstep>
  <structure>
   <crystal>
    <varray name="basis" >
     <v>      15.00000000       0.00000000       0.00000000 </v>
     <v>       0.00000000      15.00000000       0.00000000 </v>
     <v>       0.00000000       0.00000000      15.00000000 </v>
    </varray>
    <i name="volume">   3375.00000000 </i>
    <varray name="rec_basis" >
     <v>       0.06666667       0.00000000       0.00000000 </v>
     <v>       0.00000000       0.06666667       0.00000000 </v>
     <v>       0.00000000       0.00000000       0.06666667 </v>
    </varray>
   </crystal>
   <varray name="positions" >
    <v>       0.37477923       0.53134422       0.58871293 </v>
    <v>       0.38011948       0.44208608       0.59211934 </v>
    <v>       0.47250997       0.40547357       0.60390518 </v>
    <v>       0.46189543       0.58085103       0.59285025 </v>
    <v>       0.51856104       0.54395948       0.51403426 </v>
    <v>       0.52954618       0.43983414       0.52429862 </v>
    <v>       0.60445397       0.58843508       0.50561958 </v>
    <v>       0.49737070       0.38930717       0.44726480 </v>
    <v>       0.32544524       0.39648197       0.57727296 </v>
    <v>       0.50345230       0.43201511       0.66503847 </v>
    <v>       0.47542423       0.33248711       0.60708929 </v>
    <v>       0.31408033       0.56769123       0.57210452 </v>
    <v>       0.49884975       0.56735692       0.65532211 </v>
    <v>       0.45439701       0.65343791       0.58806964 </v>
    <v>       0.48241556       0.55879077       0.45185571 </v>
    <v>       0.60023619       0.42481766       0.53661534 </v>
    <v>       0.67125612       0.62706137       0.49570223 </v>
    <v>       0.46205878       0.34223859       0.39622893 </v>
   </varray>
  </structure>
  <varray name="forces" >
   <v>       0.04294696      -0.00587479      -0.03013186 </v>
   <v>       0.07802818      -0.01572515       0.06767686 </v>
   <v>      -0.03796113      -0.04662753       0.12213845 </v>
   <v>      -0.08266760       0.08739678       0.02917599 </v>
   <v>       0.10036060      -0.07720870      -0.07237796 </v>
   <v>       0.03065807      -0.01712928      -0.07376963 </v>
   <v>      -0.00522204       0.07188710      -0.07538016 </v>
   <v>       0.01524781      -0.03370377       0.03850022 </v>
   <v>      -0.13697350       0.13256322       0.19895745 </v>
   <v>      -0.01508237      -0.11853261       0.08639024 </v>
   <v>      -0.02998674       0.00564051      -0.02611157 </v>
   <v>      -0.11209954      -0.04329512       0.12032682 </v>
   <v>      -0.11633783       0.09154222      -0.07136829 </v>
   <v>      -0.01589698      -0.00328773      -0.11632153 </v>
   <v>      -0.05899801      -0.06879655       0.00031999 </v>
   <v>       0.04451283      -0.09461632      -0.10000176 </v>
   <v>       0.11594774      -0.00797657       0.09230096 </v>
   <v>       0.18352355       0.14374429      -0.19032419 </v>
  </varray>
  <varray name="stress" >
   <v>      -0.78689384      -0.16497303      -0.39470991 </v>
   <v>      -0.16497303      -1.21762925      -0.07501108 </v>
   <v>      -0.39470991      -0.07501108      -0.91606631 </v>
  </varray>
  <energy>
   <i name="e_fr_energy">   -115.97208954 </i>
   <i name="e_wo_entrp">   -115.97208954 </i>
   <i name="e_0_energy">   -115.97208954 </i>
  </energy>
  <time name="totalsc">   76.16   79.03</time>
 </calculation>
 <calculation>
  <scstep>
   <time name="dav">    4.05    4.13</time>
   <time name="total">    6.77    6.86</time>
   <energy>
    <i name="alphaZ">      3.36120243 </i>
    <i name="ewald">   3178.62120915 </i>
    <i name="hartreedc">  -4627.95506729 </i>
    <i name="XCdc">    170.72988950 </i>
    <i name="pawpsdc">   4327.35367242 </i>
    <i name="pawaedc">  -4335.65563003 </i>
    <i name="eentropy">     -0.00000000 </i>
    <i name="bandstr">   -637.97485134 </i>
    <i name="atom">   1805.79685712 </i>
    <i name="e_fr_energy">   -115.72271804 </i>
    <i name="e_wo_entrp">   -115.72271804 </i>
    <i name="e_0_energy">   -115.72271804 </i>
   </energy>
  </scstep>
  <scstep>
   <time name="diag">    0.46    0.46</time>
   <time name="diis">    3.30    3.45</time>
   <time name="orth">    0.02    0.02</time>
   <time name="total">    5.62    5.78</time>
   <energy>
    <i name="e_fr_energy">   -115.72273820 </i>
    <i name="e_wo_entrp">   -115.72273820 </i>
    <i name="e_0_energy">   -115.72273820 </i>
   </energy>
  </scstep>
  <scstep>
   <time name="diag">    0.55    0.55</time>
   <time name="diis">    3.35    3.35</time>
   <time name="orth">    0.02    0.03</time>
   <time name="total">    5.73    5.89</time>
   <energy>
    <i name="alphaZ">      3.36120243 </i>
    <i name="ewald">   3178.62120915 </i>
    <i name="hartreedc">  -4628.05954997 </i>
    <i name="XCdc">    170.73442216 </i>
    <i name="pawpsdc">   4329.89474991 </i>
    <i name="pawaedc">  -4338.19819183 </i>
    <i name="eentropy">     -0.00000000 </i>
    <i name="bandstr">   -637.87344342 </i>
    <i name="atom">   1805.79685712 </i>
    <i name="e_fr_energy">   -115.72274445 </i>
    <i name="e_wo_entrp">   -115.72274445 </i>
    <i name="e_0_energy">   -115.72274445 </i>
   </energy>
  </scstep>
  <structure>
   <crystal>
    <varray name="basis" >
     <v>      15.00000000       0.00000000       0.00000000 </v>
     <v>       0.00000000      15.00000000       0.00000000 </v>
     <v>       0.00000000       0.00000000      15.00000000 </v>
    </varray>
    <i name="volume">   3375.00000000 </i>
    <varray name="rec_basis" >
     <v>       0.06666667       0.00000000       0.00000000 </v>
     <v>       0.00000000       0.06666667       0.00000000 </v>
     <v>       0.00000000       0.00000000       0.06666667 </v>
    </varray>
   </crystal>
   <varray name="positions" >
    <v>       0.37480083       0.53133341       0.58872321 </v>
    <v>       0.38016474       0.44207208       0.59212480 </v>
    <v>       0.47246979       0.40548227       0.60390524 </v>
    <v>       0.46183996       0.58086842       0.59289138 </v>
    <v>       0.51861158       0.54389192       0.51403498 </v>
    <v>       0.52954233       0.43985700       0.52424117 </v>
    <v>       0.60443160       0.58843597       0.50560323 </v>
    <v>       0.49738614       0.38931294       0.44729659 </v>
    <v>       0.32545082       0.39649970       0.57729936 </v>
    <v>       0.50340674       0.43195978       0.66500116 </v>
    <v>       0.47541973       0.33255368       0.60709620 </v>
    <v>       0.31408446       0.56769874       0.57212668 </v>
    <v>       0.49881974       0.56737477       0.65526420 </v>
    <v>       0.45441804       0.65340441       0.58805597 </v>
    <v>       0.48244430       0.55877266       0.45189724 </v>
    <v>       0.60021138       0.42483757       0.53662614 </v>
    <v>       0.67124469       0.62704493       0.49569399 </v>
    <v>       0.46211690       0.34227604       0.39623348 </v>
   </varray>
  </structure>
  <varray name="forces" >
   <v>       0.02414862       0.00117006      -0.02949410 </v>
   <v>       0.04616132      -0.00507903       0.06645127 </v>
   <v>      -0.01608644      -0.04113936       0.09954815 </v>
   <v>      -0.05445757       0.05666728      -0.01280723 </v>
   <v>       0.06559351      -0.04219167      -0.06271082 </v>
   <v>       0.03352916      -0.02704661      -0.02852681 </v>
   <v>       0.01104456       0.06951567      -0.07245053 </v>
   <v>       0.02193045      -0.02464616       0.03198652 </v>
   <v>      -0.13360132       0.13245452       0.19814491 </v>
   <v>      -0.00402200      -0.10478572       0.10374110 </v>
   <v>      -0.03172593      -0.01955980      -0.02847584 </v>
   <v>      -0.10502776      -0.05165192       0.12189511 </v>
   <v>      -0.10425155       0.08627008      -0.04208386 </v>
   <v>      -0.02280199       0.02033115      -0.11746422 </v>
   <v>      -0.06301169      -0.06810458      -0.00643902 </v>
   <v>       0.04902438      -0.09887255      -0.10086505 </v>
   <v>       0.11693146      -0.00473367       0.09192045 </v>
   <v>       0.16662278       0.12140231      -0.21237002 </v>
  </varray>
  <varray name="stress" >
   <v>      -0.73762041      -0.15754551      -0.35535190 </v>
   <v>      -0.15754551      -1.15445627      -0.06668738 </v>
   <v>      -0.35535190      -0.06668737      -0.87458384 </v>
  </varray>
  <energy>
   <i name="e_fr_energy">   -115.97287443 </i>
   <i name="e_wo_entrp">   -115.97287443 </i>
   <i name="e_0_energy">   -115.97287443 </i>
  </energy>
  <time name="totalsc">   37.57   38.27</time>
 </calculation>
 <calculation>
  <scstep>
   <time name="dav">    2.02    2.02</time>
   <time name="total">    3.82    3.82</time>
   <energy>
    <i name="alphaZ">      3.36120243 </i>
    <i name="ewald">   3177.26766294 </i>
    <i name="hartreedc">  -4626.83799453 </i>
    <i name="XCdc">    170.72632755 </i>
    <i name="pawpsdc">   4330.79084587 </i>
    <i name="pawaedc">  -4339.09465543 </i>
    <i name="eentropy">     -0.00000000 </i>
    <i name="bandstr">   -637.73811604 </i>
    <i name="atom">   1805.79685712 </i>
    <i name="e_fr_energy">   -115.72787009 </i>
    <i name="e_wo_entrp">   -115.72787009 </i>
    <i name="e_0_energy">   -115.72787009 </i>
   </energy>
  </scstep>
  <scstep>
   <time name="diag">    0.91    0.91</time>
   <time name="diis">    4.38    4.38</time>
   <time name="orth">    0.03    0.03</time>
   <time name="total">    8.72    8.73</time>
   <energy>
    <i name="e_fr_energy">   -115.72795315 </i>
    <i name="e_wo_entrp">   -115.72795315 </i>
    <i name="e_0_energy">   -115.72795315 </i>
   </energy>
  </scstep>
  <scstep>
   <time name="diag">    0.90    0.90</time>
   <time name="diis">    4.28    4.28</time>
   <time name="orth">    0.01    0.01</time>
   <time name="total">    8.30    8.30</time>
   <energy>
    <i name="e_fr_energy">   -115.72799746 </i>
    <i name="e_wo_entrp">   -115.72799746 </i>
    <i name="e_0_energy">   -115.72799746 </i>
   </energy>
  </scstep>
  <scstep>
   <time name="diag">    0.18    0.18</time>
   <time name="diis">    0.98    0.98</time>
   <time name="orth">    0.00    0.00</time>
   <time name="total">    2.12    2.12</time>
   <energy>
    <i name="e_fr_energy">   -115.72801281 </i>
    <i name="e_wo_entrp">   -115.72801281 </i>
    <i name="e_0_energy">   -115.72801281 </i>
   </energy>
  </scstep>
  <scstep>
   <time name="diag">    0.15    0.15</time>
   <time name="diis">    0.65    0.65</time>
   <time name="orth">    0.00    0.00</time>
   <time name="total">    1.52    1.52</time>
   <energy>
    <i name="alphaZ">      3.36120243 </i>
    <i name="ewald">   3177.26766294 </i>
    <i name="hartreedc">  -4626.75221240 </i>
    <i name="XCdc">    170.72376113 </i>
    <i name="pawpsdc">   4330.00005590 </i>
    <i name="pawaedc">  -4338.30270570 </i>
    <i name="eentropy">     -0.00000000 </i>
    <i name="bandstr">   -637.82263751 </i>
    <i name="atom">   1805.79685712 </i>
    <i name="e_fr_energy">   -115.72801609 </i>
    <i name="e_wo_entrp">   -115.72801609 </i>
    <i name="e_0_energy">   -115.72801609 </i>
   </energy>
  </scstep>
  <structure>
   <crystal>
    <varray name="basis" >
     <v>      15.00000000       0.00000000       0.00000000 </v>
     <v>       0.00000000      15.00000000       0.00000000 </v>
     <v>       0.00000000       0.00000000      15.00000000 </v>
    </varray>
    <i name="volume">   3375.00000000 </i>
    <varray name="rec_basis" >
     <v>       0.06666667       0.00000000       0.00000000 </v>
     <v>       0.00000000       0.06666667       0.00000000 </v>
     <v>       0.00000000       0.00000000       0.06666667 </v>
    </varray>
   </crystal>
   <varray name="positions" >
    <v>       0.37482543       0.53133113       0.58869499 </v>
    <v>       0.38022195       0.44206406       0.59221518 </v>
    <v>       0.47248240       0.40544636       0.60399837 </v>
    <v>       0.46178825       0.58091814       0.59284981 </v>
    <v>       0.51866376       0.54385730       0.51396162 </v>
    <v>       0.52956032       0.43981894       0.52420636 </v>
    <v>       0.60445220       0.58850290       0.50553857 </v>
    <v>       0.49735767       0.38929580       0.44732875 </v>
    <v>       0.32533544       0.39663533       0.57752864 </v>
    <v>       0.50344706       0.43186056       0.66509535 </v>
    <v>       0.47540719       0.33253300       0.60708549 </v>
    <v>       0.31398924       0.56761195       0.57222820 </v>
    <v>       0.49871830       0.56747890       0.65521441 </v>
    <v>       0.45437230       0.65343746       0.58792936 </v>
    <v>       0.48238415       0.55871013       0.45187608 </v>
    <v>       0.60024527       0.42471049       0.53645608 </v>
    <v>       0.67136055       0.62703497       0.49585975 </v>
    <v>       0.46220624       0.34240300       0.39600726 </v>
   </varray>
  </structure>
  <varray name="forces" >
   <v>       0.00304691      -0.00481346      -0.02328040 </v>
   <v>       0.01703180       0.01199048       0.06352515 </v>
   <v>       0.00210892      -0.02958005       0.06477866 </v>
   <v>      -0.03541823       0.04556368      -0.04822096 </v>
   <v>       0.04508380      -0.02327616      -0.04440922 </v>
   <v>       0.03479117      -0.02522360       0.00423315 </v>
   <v>       0.02487979       0.06257387      -0.06573395 </v>
   <v>      -0.00536196      -0.05699863      -0.02455276 </v>
   <v>      -0.11925963       0.12471175       0.19810412 </v>
   <v>       0.00043574      -0.10007846       0.10432099 </v>
   <v>      -0.03061387      -0.02992966      -0.02485624 </v>
   <v>      -0.08992832      -0.05634614       0.12017890 </v>
   <v>      -0.09095389       0.08220927      -0.02769960 </v>
   <v>      -0.02329425       0.02540013      -0.11886316 </v>
   <v>      -0.05479161      -0.06831813      -0.00700719 </v>
   <v>       0.04491271      -0.09284592      -0.09210185 </v>
   <v>       0.08944906      -0.01399958       0.08970126 </v>
   <v>       0.18788186       0.14896062      -0.16811691 </v>
  </varray>
  <varray name="stress" >
   <v>      -0.78091889      -0.16527801      -0.33526393 </v>
   <v>      -0.16527801      -1.17922155      -0.07210841 </v>
   <v>      -0.33526393      -0.07210841      -0.90325692 </v>
  </varray>
  <energy>
   <i name="e_fr_energy">   -115.97809265 </i>
   <i name="e_wo_entrp">   -115.97809265 </i>
   <i name="e_0_energy">   -115.97809265 </i>
  </energy>
  <time name="totalsc">   43.81   44.09</time>
 </calculation>
 <calculation>
  <scstep>
   <time name="dav">    3.03    3.05</time>
   <time name="total">    5.25    5.29</time>
   <energy>
    <i name="alphaZ">      3.36120243 </i>
    <i name="ewald">   3174.50933162 </i>
    <i name="hartreedc">  -4624.19517009 </i>
    <i name="XCdc">    170.70491842 </i>
    <i name="pawpsdc">   4329.69774899 </i>
    <i name="pawaedc">  -4338.00037931 </i>
    <i name="eentropy">     -0.00000000 </i>
    <i name="bandstr">   -637.61094322 </i>
    <i name="atom">   1805.79685712 </i>
    <i name="e_fr_energy">   -115.73643402 </i>
    <i name="e_wo_entrp">   -115.73643402 </i>
    <i name="e_0_energy">   -115.73643402 </i>
   </energy>
  </scstep>
  <scstep>
   <time name="diag">    0.46    0.46</time>
   <time name="diis">    4.61    4.65</time>
   <time name="orth">    0.01    0.02</time>
   <time name="total">    7.37    7.43</time>
   <energy>
    <i name="e_fr_energy">   -115.73672382 </i>
    <i name="e_wo_entrp">   -115.73672382 </i>
    <i name="e_0_energy">   -115.73672382 </i>
   </energy>
  </scstep>
  <scstep>
   <time name="diag">    0.57    0.59</time>
   <time name="diis">    3.00    3.22</time>
   <time name="orth">    0.01    0.02</time>
   <time name="total">    5.80    6.05</time>
   <energy>
    <i name="e_fr_energy">   -115.73684805 </i>
    <i name="e_wo_entrp">   -115.73684805 </i>
    <i name="e_0_energy">   -115.73684805 </i>
   </energy>
  </scstep>
  <scstep>
   <time name="diag">    0.38    0.38</time>
   <time name="diis">    2.54    2.54</time>
   <time name="orth">    0.01    0.01</time>
   <time name="total">    4.84    4.85</time>
   <energy>
    <i name="e_fr_energy">   -115.73689449 </i>
    <i name="e_wo_entrp">   -115.73689449 </i>
    <i name="e_0_energy">   -115.73689449 </i>
   </energy>
  </scstep>
  <scstep>
   <time name="diag">    0.32    0.32</time>
   <time name="diis">    1.79    1.79</time>
   <time name="orth">    0.01    0.01</time>
   <time name="total">    3.65    3.65</time>
   <energy>
    <i name="alphaZ">      3.36120243 </i>
    <i name="ewald">   3174.50933162 </i>
    <i name="hartreedc">  -4624.09158931 </i>
    <i name="XCdc">    170.70352703 </i>
    <i name="pawpsdc">   4326.94905832 </i>
    <i name="pawaedc">  -4335.25069623 </i>
    <i name="eentropy">     -0.00000000 </i>
    <i name="bandstr">   -637.71459253 </i>
    <i name="atom">   1805.79685712 </i>
    <i name="e_fr_energy">   -115.73690154 </i>
    <i name="e_wo_entrp">   -115.73690154 </i>
    <i name="e_0_energy">   -115.73690154 </i>
   </energy>
  </scstep>
  <structure>
   <crystal>
    <varray name="basis" >
     <v>      15.00000000       0.00000000       0.00000000 </v>
     <v>       0.00000000      15.00000000       0.00000000 </v>
     <v>       0.00000000       0.00000000      15.00000000 </v>
    </varray>
    <i name="volume">   3375.00000000 </i>
    <varray name="rec_basis" >
     <v>       0.06666667       0.00000000       0.00000000 </v>
     <v>       0.00000000       0.06666667       0.00000000 </v>
     <v>       0.00000000       0.00000000       0.06666667 </v>
    </varray>
   </crystal>
   <varray name="positions" >
    <v>       0.37484845       0.53132831       0.58863840 </v>
    <v>       0.38028974       0.44206668       0.59237912 </v>
    <v>       0.47253282       0.40537868       0.60415900 </v>
    <v>       0.46172932       0.58100616       0.59273420 </v>
    <v>       0.51873040       0.54383458       0.51383515 </v>
    <v>       0.52959920       0.43973851       0.52418881 </v>
    <v>       0.60451163       0.58862887       0.50542637 </v>
    <v>       0.49728109       0.38922966       0.44732956 </v>
    <v>       0.32511459       0.39687944       0.57794959 </v>
    <v>       0.50354282       0.43170087       0.66529757 </v>
    <v>       0.47538313       0.33245219       0.60705923 </v>
    <v>       0.31380946       0.56744633       0.57241441 </v>
    <v>       0.49854629       0.56766349       0.65515785 </v>
    <v>       0.45427855       0.65351432       0.58769304 </v>
    <v>       0.48225733       0.55859834       0.45181446 </v>
    <v>       0.60032556       0.42446521       0.53614308 </v>
    <v>       0.67156849       0.62701741       0.49616704 </v>
    <v>       0.46238255       0.34265281       0.39561094 </v>
   </varray>
  </structure>
  <varray name="forces" >
   <v>      -0.01191679      -0.00652028      -0.01033973 </v>
   <v>      -0.00447347       0.02620831       0.06214064 </v>
   <v>       0.01442976      -0.01624910       0.02444406 </v>
   <v>      -0.02055749       0.03519885      -0.07518202 </v>
   <v>       0.03059349      -0.00996829      -0.02709801 </v>
   <v>       0.02495498      -0.02799935       0.01455071 </v>
   <v>       0.00904816       0.03072697      -0.05053359 </v>
   <v>       0.03039530       0.00255956       0.01326541 </v>
   <v>      -0.09573623       0.11002356       0.19901530 </v>
   <v>      -0.00146261      -0.10085838       0.09099110 </v>
   <v>      -0.02962753      -0.02833917      -0.01708854 </v>
   <v>      -0.06823814      -0.05864879       0.11594770 </v>
   <v>      -0.07801550       0.07975615      -0.02322344 </v>
   <v>      -0.02250850       0.02418047      -0.12027687 </v>
   <v>      -0.03577197      -0.06984890      -0.00263134 </v>
   <v>       0.03232179      -0.07960719      -0.07783114 </v>
   <v>       0.07411298      -0.01388552       0.08212355 </v>
   <v>       0.15245176       0.10327109      -0.19827378 </v>
  </varray>
  <varray name="stress" >
   <v>      -0.84928298      -0.15572361      -0.30399054 </v>
   <v>      -0.15572361      -1.21207310      -0.05857971 </v>
   <v>      -0.30399054      -0.05857971      -0.93352783 </v>
  </varray>
  <energy>
   <i name="e_fr_energy">   -115.98690222 </i>
   <i name="e_wo_entrp">   -115.98690222 </i>
   <i name="e_0_energy">   -115.98690222 </i>
  </energy>
  <time name="totalsc">   55.97   56.98</time>
 </calculation>
 <calculation>
  <scstep>
   <time name="dav">    3.44    3.56</time>
   <time name="total">    5.87    6.01</time>
   <energy>
    <i name="alphaZ">      3.36120243 </i>
    <i name="ewald">   3175.16610991 </i>
    <i name="hartreedc">  -4624.51305907 </i>
    <i name="XCdc">    170.71903270 </i>
    <i name="pawpsdc">   4326.79727055 </i>
    <i name="pawaedc">  -4335.09888409 </i>
    <i name="eentropy">     -0.00000000 </i>
    <i name="bandstr">   -637.96933323 </i>
    <i name="atom">   1805.79685712 </i>
    <i name="e_fr_energy">   -115.74080368 </i>
    <i name="e_wo_entrp">   -115.74080368 </i>
    <i name="e_0_energy">   -115.74080368 </i>
   </energy>
  </scstep>
  <scstep>
   <time name="diag">    0.37    0.37</time>
   <time name="diis">    2.34    2.34</time>
   <time name="orth">    0.01    0.01</time>
   <time name="total">    4.80    4.80</time>
   <energy>
    <i name="e_fr_energy">   -115.74089155 </i>
    <i name="e_wo_entrp">   -115.74089155 </i>
    <i name="e_0_energy">   -115.74089155 </i>
   </energy>
  </scstep>
  <scstep>
   <time name="diag">    0.33    0.33</time>
   <time name="diis">    2.21    2.21</time>
   <time name="orth">    0.01    0.01</time>
   <time name="total">    4.33    4.33</time>
   <energy>
    <i name="e_fr_energy">   -115.74092957 </i>
    <i name="e_wo_entrp">   -115.74092957 </i>
    <i name="e_0_energy">   -115.74092957 </i>
   </energy>
  </scstep>
  <scstep>
   <time name="diag">    0.26    0.26</time>
   <time name="diis">    1.93    1.93</time>
   <time name="orth">    0.01    0.01</time>
   <time name="total">    3.86    3.86</time>
   <energy>
    <i name="e_fr_energy">   -115.74094438 </i>
    <i name="e_wo_entrp">   -115.74094438 </i>
    <i name="e_0_energy">   -115.74094438 </i>
   </energy>
  </scstep>
  <scstep>
   <time name="diag">    0.38    0.38</time>
   <time name="diis">    1.73    1.73</time>
   <time name="orth">    0.01    0.01</time>
   <time name="total">    3.55    3.55</time>
   <energy>
    <i name="alphaZ">      3.36120243 </i>
    <i name="ewald">   3175.16610991 </i>
    <i name="hartreedc">  -4624.67286497 </i>
    <i name="XCdc">    170.72664152 </i>
    <i name="pawpsdc">   4330.55629917 </i>
    <i name="pawaedc">  -4338.86006395 </i>
    <i name="eentropy">     -0.00000000 </i>
    <i name="bandstr">   -637.81513045 </i>
    <i name="atom">   1805.79685712 </i>
    <i name="e_fr_energy">   -115.74094922 </i>
    <i name="e_wo_entrp">   -115.74094922 </i>
    <i name="e_0_energy">   -115.74094922 </i>
   </energy>
  </scstep>
  <structure>
   <crystal>
    <varray name="basis" >
     <v>      15.00000000       0.00000000       0.00000000 </v>
     <v>       0.00000000      15.00000000       0.00000000 </v>
     <v>       0.00000000       0.00000000      15.00000000 </v>
    </varray>
    <i name="volume">   3375.00000000 </i>
    <varray name="rec_basis" >
     <v>       0.06666667       0.00000000       0.00000000 </v>
     <v>       0.00000000       0.06666667       0.00000000 </v>
     <v>       0.00000000       0.00000000       0.06666667 </v>
    </varray>
   </crystal>
   <varray name="positions" >
    <v>       0.37485140       0.53131036       0.58864656 </v>
    <v>       0.38032679       0.44207884       0.59244784 </v>
    <v>       0.47250724       0.40538773       0.60415221 </v>
[...]
   <v>       0.00113010      -0.00226028       0.00938827 </v>
   <v>      -0.00060393      -0.00094559      -0.00460111 </v>
   <v>      -0.00284253       0.00191232       0.03453886 </v>
   <v>      -0.00665665      -0.02062489       0.00981999 </v>
   <v>       0.00193619       0.00182708      -0.02556375 </v>
   <v>      -0.00088397       0.01247538       0.03124683 </v>
   <v>      -0.01413338       0.02243588       0.00097548 </v>
   <v>       0.00616262      -0.00889641      -0.03303948 </v>
   <v>       0.00718269      -0.01552021       0.00009357 </v>
   <v>      -0.00227678       0.01588219      -0.00860322 </v>
   <v>      -0.00539760      -0.01874288      -0.00367156 </v>
   <v>       0.03589522       0.01182570      -0.01625584 </v>
  </varray>
  <varray name="stress" >
   <v>      -1.21746946      -0.02799845      -0.01868450 </v>
   <v>      -0.02799846      -1.21554280       0.00482969 </v>
   <v>      -0.01868450       0.00482969      -1.21208381 </v>
  </varray>
  <energy>
   <i name="e_fr_energy">   -116.17620736 </i>
   <i name="e_wo_entrp">   -116.17620736 </i>
   <i name="e_0_energy">   -116.17620736 </i>
  </energy>
  <time name="totalsc">   32.77   34.13</time>
 </calculation>
 <calculation>
  <scstep>
   <time name="dav">    3.02    3.03</time>
   <time name="total">    5.50    5.56</time>
   <energy>
    <i name="alphaZ">      3.36120243 </i>
    <i name="ewald">   3136.41283468 </i>
    <i name="hartreedc">  -4586.66203378 </i>
    <i name="XCdc">    170.61049153 </i>
    <i name="pawpsdc">   4323.83111134 </i>
    <i name="pawaedc">  -4332.12903133 </i>
    <i name="eentropy">     -0.00000000 </i>
    <i name="bandstr">   -637.15042898 </i>
    <i name="atom">   1805.79685712 </i>
    <i name="e_fr_energy">   -115.92899700 </i>
    <i name="e_wo_entrp">   -115.92899700 </i>
    <i name="e_0_energy">   -115.92899700 </i>
   </energy>
  </scstep>
  <scstep>
   <time name="diag">    0.53    0.74</time>
   <time name="diis">    2.45    2.71</time>
   <time name="orth">    0.02    0.03</time>
   <time name="total">    4.76    5.25</time>
   <energy>
    <i name="alphaZ">      3.36120243 </i>
    <i name="ewald">   3136.41283468 </i>
    <i name="hartreedc">  -4586.67138917 </i>
    <i name="XCdc">    170.61105195 </i>
    <i name="pawpsdc">   4323.89025618 </i>
    <i name="pawaedc">  -4332.18831726 </i>
    <i name="eentropy">     -0.00000000 </i>
    <i name="bandstr">   -637.14149355 </i>
    <i name="atom">   1805.79685712 </i>
    <i name="e_fr_energy">   -115.92899762 </i>
    <i name="e_wo_entrp">   -115.92899762 </i>
    <i name="e_0_energy">   -115.92899762 </i>
   </energy>
  </scstep>
  <structure>
   <crystal>
    <varray name="basis" >
     <v>      15.00000000       0.00000000       0.00000000 </v>
     <v>       0.00000000      15.00000000       0.00000000 </v>
     <v>       0.00000000       0.00000000      15.00000000 </v>
    </varray>
    <i name="volume">   3375.00000000 </i>
    <varray name="rec_basis" >
     <v>       0.06666667       0.00000000       0.00000000 </v>
     <v>       0.00000000       0.06666667       0.00000000 </v>
     <v>       0.00000000       0.00000000       0.06666667 </v>
    </varray>
   </crystal>
   <varray name="positions" >
    <v>       0.37385128       0.53020506       0.59274192 </v>
    <v>       0.38155255       0.44178016       0.60265404 </v>
    <v>       0.47394354       0.40331959       0.60349738 </v>
    <v>       0.45801907       0.58366802       0.58416033 </v>
    <v>       0.51879159       0.54213675       0.51047703 </v>
    <v>       0.52736468       0.43762958       0.52109671 </v>
    <v>       0.60630753       0.58468787       0.51025638 </v>
    <v>       0.49539009       0.39265980       0.44079164 </v>
    <v>       0.32366252       0.39796129       0.60688255 </v>
    <v>       0.51055436       0.42556420       0.66342070 </v>
    <v>       0.47410894       0.33015275       0.60419761 </v>
    <v>       0.30916483       0.56323552       0.58859713 </v>
    <v>       0.49559185       0.58263707       0.64751887 </v>
    <v>       0.44534929       0.65398913       0.56836773 </v>
    <v>       0.48743768       0.55630082       0.44560340 </v>
    <v>       0.59811121       0.41985686       0.52972861 </v>
    <v>       0.67595067       0.61940530       0.51224936 </v>
    <v>       0.46740979       0.35606734       0.37806440 </v>
   </varray>
  </structure>
  <varray name="forces" >
   <v>       0.00000108      -0.00219868      -0.00111400 </v>
   <v>      -0.00181326       0.00382142       0.00078088 </v>
   <v>       0.01178457       0.00269639      -0.02699744 </v>
   <v>       0.01575259      -0.00678790      -0.03119755 </v>
   <v>      -0.02357084       0.00968084       0.03042400 </v>
   <v>      -0.01897523      -0.00738365       0.03136532 </v>
   <v>      -0.01609895      -0.01066106       0.00911388 </v>
   <v>       0.00567275       0.00715143       0.00903797 </v>
   <v>      -0.00266798       0.00218308       0.03484983 </v>
   <v>      -0.00624053      -0.02040332       0.00946347 </v>
   <v>       0.00171336       0.00163713      -0.02557810 </v>
   <v>      -0.00084058       0.01229375       0.03148318 </v>
   <v>      -0.01380607       0.02259980       0.00041468 </v>
   <v>       0.00579145      -0.00845171      -0.03306911 </v>
   <v>       0.00707806      -0.01505094       0.00004638 </v>
   <v>      -0.00247677       0.01579527      -0.00815129 </v>
   <v>       0.00860189      -0.01214102      -0.00184579 </v>
   <v>       0.03009448       0.00521917      -0.02902630 </v>
  </varray>
  <varray name="stress" >
   <v>      -1.20932195      -0.02494112      -0.01680089 </v>
   <v>      -0.02494113      -1.21118103       0.00662007 </v>
   <v>      -0.01680089       0.00662007      -1.20676799 </v>
  </varray>
  <energy>
   <i name="e_fr_energy">   -116.17621467 </i>
   <i name="e_wo_entrp">   -116.17621467 </i>
   <i name="e_0_energy">   -116.17621467 </i>
  </energy>
  <time name="totalsc">   21.81   22.61</time>
 </calculation>
 <calculation>
  <scstep>
   <time name="dav">    3.66    3.77</time>
   <time name="total">    6.08    6.21</time>
   <energy>
    <i name="alphaZ">      3.36120243 </i>
    <i name="ewald">   3136.37846499 </i>
    <i name="hartreedc">  -4586.65774279 </i>
    <i name="XCdc">    170.61069574 </i>
    <i name="pawpsdc">   4323.95201972 </i>
    <i name="pawaedc">  -4332.25017380 </i>
    <i name="eentropy">     -0.00000000 </i>
    <i name="bandstr">   -637.12034134 </i>
    <i name="atom">   1805.79685712 </i>
    <i name="e_fr_energy">   -115.92901793 </i>
    <i name="e_wo_entrp">   -115.92901793 </i>
    <i name="e_0_energy">   -115.92901793 </i>
   </energy>
  </scstep>
  <scstep>
   <time name="diag">    0.48    0.55</time>
   <time name="diis">    1.68    1.94</time>
   <time name="orth">    0.01    0.01</time>
   <time name="total">    3.84    4.18</time>
   <energy>
    <i name="alphaZ">      3.36120243 </i>
    <i name="ewald">   3136.37846499 </i>
    <i name="hartreedc">  -4586.65316648 </i>
    <i name="XCdc">    170.61033830 </i>
    <i name="pawpsdc">   4323.94189018 </i>
    <i name="pawaedc">  -4332.23997897 </i>
    <i name="eentropy">     -0.00000000 </i>
    <i name="bandstr">   -637.12462630 </i>
    <i name="atom">   1805.79685712 </i>
    <i name="e_fr_energy">   -115.92901872 </i>
    <i name="e_wo_entrp">   -115.92901872 </i>
    <i name="e_0_energy">   -115.92901872 </i>
   </energy>
  </scstep>
  <structure>
   <crystal>
    <varray name="basis" >
     <v>      15.00000000       0.00000000       0.00000000 </v>
     <v>       0.00000000      15.00000000       0.00000000 </v>
     <v>       0.00000000       0.00000000      15.00000000 </v>
    </varray>
    <i name="volume">   3375.00000000 </i>
    <varray name="rec_basis" >
     <v>       0.06666667       0.00000000       0.00000000 </v>
     <v>       0.00000000       0.06666667       0.00000000 </v>
     <v>       0.00000000       0.00000000       0.06666667 </v>
    </varray>
   </crystal>
   <varray name="positions" >
    <v>       0.37385209       0.53020335       0.59274652 </v>
    <v>       0.38155645       0.44177897       0.60266128 </v>
    <v>       0.47394837       0.40331909       0.60349689 </v>
    <v>       0.45801726       0.58366921       0.58415599 </v>
    <v>       0.51879004       0.54213700       0.51047496 </v>
    <v>       0.52736021       0.43762864       0.52109178 </v>
    <v>       0.60630343       0.58468271       0.51026135 </v>
    <v>       0.49538036       0.39266288       0.44079083 </v>
    <v>       0.32366764       0.39795872       0.60689424 </v>
    <v>       0.51056277       0.42556277       0.66341846 </v>
    <v>       0.47411384       0.33015226       0.60419809 </v>
    <v>       0.30916485       0.56323308       0.58860426 </v>
    <v>       0.49559103       0.58264633       0.64751420 </v>
    <v>       0.44534273       0.65398867       0.56835984 </v>
    <v>       0.48744256       0.55630134       0.44559811 </v>
    <v>       0.59810853       0.41985657       0.52971240 </v>
    <v>       0.67595323       0.61940314       0.51226303 </v>
    <v>       0.46739836       0.35606802       0.37805674 </v>
   </varray>
  </structure>
  <varray name="forces" >
   <v>      -0.00021528      -0.00208791      -0.00124185 </v>
   <v>      -0.00217673       0.00378557       0.00071428 </v>
   <v>       0.01131818       0.00270603      -0.02654329 </v>
   <v>       0.01532622      -0.00673954      -0.03065930 </v>
   <v>      -0.02469848       0.00856950       0.03026706 </v>
   <v>      -0.01809065      -0.00653658       0.03218719 </v>
   <v>      -0.00250347      -0.00371145       0.00920363 </v>
   <v>       0.00083411       0.00061164      -0.00190252 </v>
   <v>      -0.00278164       0.00223307       0.03495050 </v>
   <v>      -0.00622804      -0.02029791       0.00941522 </v>
   <v>       0.00160707       0.00152089      -0.02562720 </v>
   <v>      -0.00091350       0.01209813       0.03163814 </v>
   <v>      -0.01376203       0.02244297       0.00048708 </v>
   <v>       0.00570750      -0.00850087      -0.03314415 </v>
   <v>       0.00680751      -0.01494953       0.00024283 </v>
   <v>      -0.00263786       0.01559578      -0.00784008 </v>
   <v>      -0.00189743      -0.01731635      -0.00273243 </v>
   <v>       0.03430455       0.01057655      -0.01941510 </v>
  </varray>
  <varray name="stress" >
   <v>      -1.21650683      -0.02671028      -0.01809670 </v>
   <v>      -0.02671028      -1.21689344       0.00514219 </v>
   <v>      -0.01809670       0.00514219      -1.21333571 </v>
  </varray>
  <energy>
   <i name="e_fr_energy">   -116.17623292 </i>
   <i name="e_wo_entrp">   -116.17623292 </i>
   <i name="e_0_energy">   -116.17623292 </i>
  </energy>
  <time name="totalsc">   20.57   21.58</time>
 </calculation>
 <calculation>
  <scstep>
   <time name="dav">    3.53    3.64</time>
   <time name="total">    6.38    7.03</time>
   <energy>
    <i name="alphaZ">      3.36120243 </i>
    <i name="ewald">   3136.54160779 </i>
    <i name="hartreedc">  -4586.79535777 </i>
    <i name="XCdc">    170.61206248 </i>
    <i name="pawpsdc">   4323.90193631 </i>
    <i name="pawaedc">  -4332.19995269 </i>
    <i name="eentropy">     -0.00000000 </i>
    <i name="bandstr">   -637.14747184 </i>
    <i name="atom">   1805.79685712 </i>
    <i name="e_fr_energy">   -115.92911617 </i>
    <i name="e_wo_entrp">   -115.92911617 </i>
    <i name="e_0_energy">   -115.92911617 </i>
   </energy>
  </scstep>
  <scstep>
   <time name="diag">    0.67    0.68</time>
   <time name="diis">    3.53    3.63</time>
   <time name="orth">    0.01    0.01</time>
   <time name="total">    7.16    7.33</time>
   <energy>
    <i name="e_fr_energy">   -115.92916079 </i>
    <i name="e_wo_entrp">   -115.92916079 </i>
    <i name="e_0_energy">   -115.92916079 </i>
   </energy>
  </scstep>
  <scstep>
   <time name="diag">    0.47    0.47</time>
   <time name="diis">    2.72    2.76</time>
   <time name="orth">    0.01    0.01</time>
   <time name="total">    5.54    5.59</time>
   <energy>
    <i name="e_fr_energy">   -115.92917791 </i>
    <i name="e_wo_entrp">   -115.92917791 </i>
    <i name="e_0_energy">   -115.92917791 </i>
   </energy>
  </scstep>
  <scstep>
   <time name="diag">    0.31    0.31</time>
   <time name="diis">    1.04    1.04</time>
   <time name="orth">    0.01    0.01</time>
   <time name="total">    2.63    2.73</time>
   <energy>
    <i name="alphaZ">      3.36120243 </i>
    <i name="ewald">   3136.54160779 </i>
    <i name="hartreedc">  -4586.80630606 </i>
    <i name="XCdc">    170.61210292 </i>
    <i name="pawpsdc">   4324.21517929 </i>
    <i name="pawaedc">  -4332.51338327 </i>
    <i name="eentropy">     -0.00000000 </i>
    <i name="bandstr">   -637.13644325 </i>
    <i name="atom">   1805.79685712 </i>
    <i name="e_fr_energy">   -115.92918302 </i>
    <i name="e_wo_entrp">   -115.92918302 </i>
    <i name="e_0_energy">   -115.92918302 </i>
   </energy>
  </scstep>
  <structure>
   <crystal>
    <varray name="basis" >
     <v>      15.00000000       0.00000000       0.00000000 </v>
     <v>       0.00000000      15.00000000       0.00000000 </v>
     <v>       0.00000000       0.00000000      15.00000000 </v>
    </varray>
    <i name="volume">   3375.00000000 </i>
    <varray name="rec_basis" >
     <v>       0.06666667       0.00000000       0.00000000 </v>
     <v>       0.00000000       0.06666667       0.00000000 </v>
     <v>       0.00000000       0.00000000       0.06666667 </v>
    </varray>
   </crystal>
   <varray name="positions" >
    <v>       0.37385958       0.53018656       0.59277743 </v>
    <v>       0.38159591       0.44176726       0.60272045 </v>
    <v>       0.47400588       0.40332317       0.60349138 </v>
    <v>       0.45800719       0.58367267       0.58411424 </v>
    <v>       0.51876438       0.54213764       0.51046926 </v>
    <v>       0.52731045       0.43762138       0.52105375 </v>
    <v>       0.60629700       0.58465359       0.51031794 </v>
    <v>       0.49524750       0.39267034       0.44076008 </v>
    <v>       0.32372385       0.39792757       0.60699902 </v>
    <v>       0.51063531       0.42555936       0.66340930 </v>
    <v>       0.47418663       0.33015770       0.60420662 </v>
    <v>       0.30916924       0.56321857       0.58866053 </v>
    <v>       0.49556422       0.58272143       0.64748624 </v>
    <v>       0.44530776       0.65397851       0.56828841 </v>
    <v>       0.48749319       0.55630069       0.44555429 </v>
    <v>       0.59808088       0.41986188       0.52951736 </v>
    <v>       0.67594029       0.61937030       0.51239195 </v>
    <v>       0.46728900       0.35608171       0.37801388 </v>
   </varray>
  </structure>
  <varray name="forces" >
   <v>      -0.00054930      -0.00147236      -0.00305888 </v>
   <v>      -0.00267401       0.00324549      -0.00086646 </v>
   <v>       0.00548042       0.00029077      -0.01932514 </v>
   <v>       0.00902928      -0.00410438      -0.02365642 </v>
   <v>      -0.01622198       0.00500162       0.02265388 </v>
   <v>      -0.01347284      -0.00485655       0.02259875 </v>
   <v>      -0.01127110      -0.00739993       0.00965676 </v>
   <v>       0.00379312       0.00518329       0.00435284 </v>
   <v>      -0.00283850       0.00268799       0.03513618 </v>
   <v>      -0.00502212      -0.01916065       0.00691349 </v>
   <v>       0.00009119       0.00038474      -0.02607907 </v>
   <v>      -0.00078954       0.00976135       0.03197782 </v>
   <v>      -0.01205209       0.02086779      -0.00162751 </v>
   <v>       0.00429907      -0.00740563      -0.03410818 </v>
   <v>       0.00436968      -0.01297736       0.00197594 </v>
   <v>      -0.00296846       0.01295118      -0.00352203 </v>
   <v>       0.00749303      -0.01341811      -0.00421056 </v>
   <v>       0.03330414       0.01042073      -0.01881140 </v>
  </varray>
  <varray name="stress" >
   <v>      -1.20517211      -0.02510745      -0.02191025 </v>
   <v>      -0.02510745      -1.21329140       0.00091779 </v>
   <v>      -0.02191025       0.00091779      -1.21266101 </v>
  </varray>
  <energy>
   <i name="e_fr_energy">   -116.17638647 </i>
   <i name="e_wo_entrp">   -116.17638647 </i>
   <i name="e_0_energy">   -116.17638647 </i>
  </energy>
  <time name="totalsc">   32.50   33.64</time>
  <eigenvalues>
   <array>
    <dimension dim="1">band</dimension>
    <dimension dim="2">kpoint</dimension>
    <dimension dim="3">spin</dimension>
    <field>eigene</field>
    <field>occ</field>
    <set>
     <set comment="spin 1">
      <set comment="kpoint 1">
       <r>  -22.8372    1.0000 </r>
       <r>  -22.5391    1.0000 </r>
       <r>  -21.7417    1.0000 </r>
       <r>  -19.6702    1.0000 </r>
       <r>  -19.5205    1.0000 </r>
       <r>  -16.6927    1.0000 </r>
       <r>  -16.3975    1.0000 </r>
       <r>  -13.8576    1.0000 </r>
       <r>  -13.5061    1.0000 </r>
       <r>  -13.1759    1.0000 </r>
       <r>  -11.8437    1.0000 </r>
       <r>  -11.5155    1.0000 </r>
       <r>  -11.0002    1.0000 </r>
       <r>  -10.5997    1.0000 </r>
       <r>  -10.2235    1.0000 </r>
       <r>   -9.8152    1.0000 </r>
       <r>   -9.0774    1.0000 </r>
       <r>   -8.8336    1.0000 </r>
       <r>   -8.5943    1.0000 </r>
       <r>   -8.3892    1.0000 </r>
       <r>   -8.3013    1.0000 </r>
       <r>   -8.1072    1.0000 </r>
       <r>   -7.8781    1.0000 </r>
       <r>   -7.8504    1.0000 </r>
       <r>   -6.6001    1.0000 </r>
       <r>   -1.4624    0.0000 </r>
       <r>   -1.0400    0.0000 </r>
       <r>   -0.8101    0.0000 </r>
       <r>   -0.5678    0.0000 </r>
       <r>   -0.4375    0.0000 </r>
       <r>   -0.3010    0.0000 </r>
       <r>    0.0728    0.0000 </r>
       <r>    0.1223    0.0000 </r>
       <r>    0.1848    0.0000 </r>
       <r>    0.4399    0.0000 </r>
      </set>
     </set>
    </set>
   </array>
  </eigenvalues>
  <separator name="orbital magnetization" >
   <v name="MAGDIPOLOUT">      0.00000000      0.00000000      0.00000000</v>
  </separator>
 </calculation>
 <structure name="finalpos" >
  <crystal>
   <varray name="basis" >
    <v>      15.00000000       0.00000000       0.00000000 </v>
    <v>       0.00000000      15.00000000       0.00000000 </v>
    <v>       0.00000000       0.00000000      15.00000000 </v>
   </varray>
   <i name="volume">   3375.00000000 </i>
   <varray name="rec_basis" >
    <v>       0.06666667       0.00000000       0.00000000 </v>
    <v>       0.00000000       0.06666667       0.00000000 </v>
    <v>       0.00000000       0.00000000       0.06666667 </v>
   </varray>
  </crystal>
  <varray name="positions" >
   <v>       0.37385958       0.53018656       0.59277743 </v>
   <v>       0.38159591       0.44176726       0.60272045 </v>
   <v>       0.47400588       0.40332317       0.60349138 </v>
   <v>       0.45800719       0.58367267       0.58411424 </v>
   <v>       0.51876438       0.54213764       0.51046926 </v>
   <v>       0.52731045       0.43762138       0.52105375 </v>
   <v>       0.60629700       0.58465359       0.51031794 </v>
   <v>       0.49524750       0.39267034       0.44076008 </v>
   <v>       0.32372385       0.39792757       0.60699902 </v>
   <v>       0.51063531       0.42555936       0.66340930 </v>
   <v>       0.47418663       0.33015770       0.60420662 </v>
   <v>       0.30916924       0.56321857       0.58866053 </v>
   <v>       0.49556422       0.58272143       0.64748624 </v>
   <v>       0.44530776       0.65397851       0.56828841 </v>
   <v>       0.48749319       0.55630069       0.44555429 </v>
   <v>       0.59808088       0.41986188       0.52951736 </v>
   <v>       0.67594029       0.61937030       0.51239195 </v>
   <v>       0.46728900       0.35608171       0.37801388 </v>
  </varray>
 </structure>
</modeling>
