       N       E                     dE             d eps       ncg     rms          rms(c)
DAV:   1     0.453456689532E+03    0.45346E+03   -0.12610E+04    86   0.725E+02
DAV:   2     0.902128506224E+02   -0.36324E+03   -0.34167E+03   116   0.143E+02
DAV:   3    -0.102626274956E+03   -0.19284E+03   -0.19214E+03    84   0.120E+02
DAV:   4    -0.124912439860E+03   -0.22286E+02   -0.22194E+02    76   0.581E+01
DAV:   5    -0.125418912615E+03   -0.50647E+00   -0.50368E+00   100   0.939E+00    0.186E+01
RMM:   6    -0.116152730175E+03    0.92662E+01   -0.13897E+01    70   0.143E+01    0.101E+01
RMM:   7    -0.113999363503E+03    0.21534E+01   -0.11614E+01    70   0.129E+01    0.415E+00
RMM:   8    -0.113858437171E+03    0.14093E+00   -0.79651E-01    70   0.437E+00    0.225E+00
RMM:   9    -0.113792739821E+03    0.65697E-01   -0.38870E-01    71   0.254E+00    0.445E-01
RMM:  10    -0.113799706500E+03   -0.69667E-02   -0.79748E-02    79   0.113E+00    0.257E-01
RMM:  11    -0.113808150242E+03   -0.84437E-02   -0.27197E-02    70   0.660E-01    0.183E-01
RMM:  12    -0.113809571836E+03   -0.14216E-02   -0.53537E-03    75   0.293E-01    0.123E-01
RMM:  13    -0.113822236041E+03   -0.12664E-01   -0.61730E-03    70   0.292E-01    0.838E-02
RMM:  14    -0.113824246205E+03   -0.20102E-02   -0.27995E-03    71   0.172E-01    0.511E-02
RMM:  15    -0.113834531128E+03   -0.10285E-01   -0.27570E-03    71   0.164E-01    0.309E-02
RMM:  16    -0.113836526073E+03   -0.19949E-02   -0.96441E-04    76   0.828E-02    0.294E-02
RMM:  17    -0.113838255021E+03   -0.17289E-02   -0.29613E-04    70   0.603E-02    0.163E-02
RMM:  18    -0.113838893234E+03   -0.63821E-03   -0.10764E-04    64   0.345E-02    0.976E-03
RMM:  19    -0.113839341625E+03   -0.44839E-03   -0.66877E-05    61   0.250E-02    0.526E-03
RMM:  20    -0.113839386473E+03   -0.44848E-04   -0.15529E-05    46   0.120E-02    0.295E-03
RMM:  21    -0.113839495269E+03   -0.10880E-03   -0.81060E-06    44   0.969E-03    0.198E-03
RMM:  22    -0.113839514038E+03   -0.18769E-04   -0.24588E-06    38   0.589E-03    0.199E-03
RMM:  23    -0.113839532183E+03   -0.18145E-04   -0.98821E-07    33   0.428E-03    0.497E-04
RMM:  24    -0.113839537193E+03   -0.50091E-05   -0.21197E-07    24   0.339E-03
   1 F= -.11413778E+03 E0= -.11413778E+03  d E =-.114138E+03
       N       E                     dE             d eps       ncg     rms          rms(c)
DAV:   1    -0.113856527499E+03   -0.16995E-01   -0.38801E+00    92   0.109E+01    0.513E-01
RMM:   2    -0.113858482153E+03   -0.19547E-02   -0.54903E-02    70   0.125E+00    0.285E-01
RMM:   3    -0.113859109402E+03   -0.62725E-03   -0.12318E-02    73   0.550E-01    0.131E-01
RMM:   4    -0.113859329982E+03   -0.22058E-03   -0.21570E-03    76   0.247E-01    0.476E-02
RMM:   5    -0.113859372217E+03   -0.42235E-04   -0.49395E-04    80   0.111E-01    0.268E-02
RMM:   6    -0.113859382794E+03   -0.10578E-04   -0.87129E-05    61   0.444E-02    0.123E-02
RMM:   7    -0.113859395352E+03   -0.12557E-04   -0.11139E-05    46   0.172E-02    0.341E-03
RMM:   8    -0.113859408685E+03   -0.13333E-04   -0.39403E-06    45   0.979E-03    0.175E-03
RMM:   9    -0.113859430696E+03   -0.22011E-04   -0.26534E-06    45   0.690E-03    0.123E-03
RMM:  10    -0.113859437342E+03   -0.66453E-05   -0.78544E-07    35   0.430E-03
   2 F= -.11415759E+03 E0= -.11415759E+03  d E =-.198057E-01
       N       E                     dE             d eps       ncg     rms          rms(c)
DAV:   1    -0.113868939403E+03   -0.95087E-02   -0.32584E+00    76   0.990E+00    0.467E-01
RMM:   2    -0.113870436441E+03   -0.14970E-02   -0.39419E-02    70   0.108E+00    0.259E-01
RMM:   3    -0.113870928867E+03   -0.49243E-03   -0.80956E-03    72   0.458E-01    0.116E-01
RMM:   4    -0.113871147271E+03   -0.21840E-03   -0.15573E-03    75   0.205E-01    0.421E-02
RMM:   5    -0.113871178594E+03   -0.31322E-04   -0.29282E-04    77   0.924E-02    0.202E-02
RMM:   6    -0.113871190338E+03   -0.11744E-04   -0.66747E-05    58   0.405E-02    0.708E-03
RMM:   7    -0.113871199754E+03   -0.94166E-05   -0.11304E-05    47   0.173E-02
   3 F= -.11416923E+03 E0= -.11416923E+03  d E =-.116386E-01
       N       E                     dE             d eps       ncg     rms          rms(c)
DAV:   1    -0.113879932004E+03   -0.87417E-02   -0.90716E+00    70   0.165E+01    0.778E-01
RMM:   2    -0.113884622221E+03   -0.46902E-02   -0.11035E-01    70   0.179E+00    0.428E-01
RMM:   3    -0.113885817841E+03   -0.11956E-02   -0.23162E-02    72   0.769E-01    0.197E-01
RMM:   4    -0.113886340132E+03   -0.52229E-03   -0.43930E-03    75   0.344E-01    0.672E-02
RMM:   5    -0.113886425168E+03   -0.85035E-04   -0.81436E-04    78   0.154E-01    0.335E-02
RMM:   6    -0.113886461448E+03   -0.36280E-04   -0.20437E-04    76   0.671E-02    0.143E-02
RMM:   7    -0.113886490129E+03   -0.28681E-04   -0.17761E-05    47   0.218E-02    0.489E-03
RMM:   8    -0.113886511591E+03   -0.21462E-04   -0.53218E-06    45   0.116E-02    0.252E-03
RMM:   9    -0.113886535529E+03   -0.23938E-04   -0.25921E-06    45   0.749E-03    0.135E-03
RMM:  10    -0.113886566284E+03   -0.30755E-04   -0.21942E-06    40   0.567E-03    0.690E-04
RMM:  11    -0.113886592374E+03   -0.26091E-04   -0.24377E-06    39   0.504E-03    0.729E-04
RMM:  12    -0.113886606234E+03   -0.13859E-04   -0.14181E-06    31   0.404E-03    0.398E-04
RMM:  13    -0.113886608895E+03   -0.26615E-05   -0.40973E-07    25   0.332E-03
   4 F= -.11418441E+03 E0= -.11418441E+03  d E =-.151852E-01
       N       E                     dE             d eps       ncg     rms          rms(c)
DAV:   1    -0.113862222184E+03    0.24384E-01   -0.51502E+01    70   0.392E+01    0.200E+00
RMM:   2    -0.113896463813E+03   -0.34242E-01   -0.68906E-01    70   0.447E+00    0.102E+00
RMM:   3    -0.113903450712E+03   -0.69869E-02   -0.13738E-01    73   0.189E+00    0.574E-01
RMM:   4    -0.113905268101E+03   -0.18174E-02   -0.26275E-02    74   0.852E-01    0.169E-01
RMM:   5    -0.113905729397E+03   -0.46130E-03   -0.51169E-03    78   0.385E-01    0.943E-02
RMM:   6    -0.113905883587E+03   -0.15419E-03   -0.13269E-03    85   0.171E-01    0.478E-02
RMM:   7    -0.113905955000E+03   -0.71413E-04   -0.14579E-04    70   0.567E-02    0.169E-02
RMM:   8    -0.113906025108E+03   -0.70108E-04   -0.26238E-05    47   0.257E-02    0.979E-03
RMM:   9    -0.113906087255E+03   -0.62147E-04   -0.12384E-05    47   0.166E-02    0.735E-03
RMM:  10    -0.113906207579E+03   -0.12032E-03   -0.14055E-05    46   0.140E-02    0.566E-03
RMM:  11    -0.113906241970E+03   -0.34391E-04   -0.40335E-06    44   0.750E-03    0.402E-03
RMM:  12    -0.113906304350E+03   -0.62381E-04   -0.57339E-06    41   0.718E-03    0.216E-03
RMM:  13    -0.113906326935E+03   -0.22584E-04   -0.22236E-06    34   0.480E-03    0.751E-04
RMM:  14    -0.113906339887E+03   -0.12952E-04   -0.14837E-06    34   0.424E-03    0.420E-04
RMM:  15    -0.113906349729E+03   -0.98421E-05   -0.89794E-07    30   0.370E-03
   5 F= -.11420339E+03 E0= -.11420339E+03  d E =-.189772E-01
       N       E                     dE             d eps       ncg     rms          rms(c)
DAV:   1    -0.113908232296E+03   -0.18924E-02   -0.62245E-01    76   0.434E+00    0.207E-01
RMM:   2    -0.113908476894E+03   -0.24460E-03   -0.77087E-03    70   0.479E-01    0.115E-01
RMM:   3    -0.113908601572E+03   -0.12468E-03   -0.14973E-03    71   0.204E-01    0.472E-02
RMM:   4    -0.113908655843E+03   -0.54271E-04   -0.34367E-04    78   0.923E-02    0.189E-02
RMM:   5    -0.113908660347E+03   -0.45033E-05   -0.48901E-05    57   0.400E-02
   6 F= -.11420586E+03 E0= -.11420586E+03  d E =-.247041E-02
       N       E                     dE             d eps       ncg     rms          rms(c)
DAV:   1    -0.113914180938E+03   -0.55251E-02   -0.50583E-01    76   0.406E+00    0.177E-01
RMM:   2    -0.113914479297E+03   -0.29836E-03   -0.65986E-03    70   0.451E-01    0.990E-02
RMM:   3    -0.113914600447E+03   -0.12115E-03   -0.11153E-03    71   0.188E-01    0.446E-02
RMM:   4    -0.113914658201E+03   -0.57754E-04   -0.28073E-04    74   0.870E-02    0.164E-02
RMM:   5    -0.113914665728E+03   -0.75270E-05   -0.48498E-05    58   0.389E-02
   7 F= -.11421209E+03 E0= -.11421209E+03  d E =-.622858E-02
       N       E                     dE             d eps       ncg     rms          rms(c)
DAV:   1    -0.113921505500E+03   -0.68473E-02   -0.11396E+00    70   0.604E+00    0.231E-01
RMM:   2    -0.113922343096E+03   -0.83760E-03   -0.14504E-02    70   0.662E-01    0.137E-01
RMM:   3    -0.113922614880E+03   -0.27178E-03   -0.26529E-03    73   0.276E-01    0.566E-02
RMM:   4    -0.113922701250E+03   -0.86370E-04   -0.49590E-04    76   0.119E-01    0.195E-02
RMM:   5    -0.113922713217E+03   -0.11968E-04   -0.93525E-05    70   0.528E-02    0.868E-03
RMM:   6    -0.113922718173E+03   -0.49552E-05   -0.17396E-05    48   0.232E-02
   8 F= -.11422046E+03 E0= -.11422046E+03  d E =-.837288E-02
       N       E                     dE             d eps       ncg     rms          rms(c)
DAV:   1    -0.113923131900E+03   -0.41868E-03   -0.31453E+00    70   0.986E+00    0.472E-01
RMM:   2    -0.113924841931E+03   -0.17100E-02   -0.40013E-02    70   0.108E+00    0.263E-01
RMM:   3    -0.113925370833E+03   -0.52890E-03   -0.76188E-03    72   0.462E-01    0.109E-01
RMM:   4    -0.113925595383E+03   -0.22455E-03   -0.15535E-03    75   0.205E-01    0.402E-02
RMM:   5    -0.113925627888E+03   -0.32505E-04   -0.29976E-04    75   0.937E-02    0.158E-02
RMM:   6    -0.113925639564E+03   -0.11676E-04   -0.57809E-05    58   0.395E-02    0.752E-03
RMM:   7    -0.113925649040E+03   -0.94757E-05   -0.12195E-05    47   0.186E-02
   9 F= -.11422382E+03 E0= -.11422382E+03  d E =-.336053E-02
       N       E                     dE             d eps       ncg     rms          rms(c)
DAV:   1    -0.113926377707E+03   -0.73814E-03   -0.18880E+00    70   0.767E+00    0.370E-01
RMM:   2    -0.113927483214E+03   -0.11055E-02   -0.24911E-02    70   0.854E-01    0.204E-01
RMM:   3    -0.113927874679E+03   -0.39146E-03   -0.47175E-03    73   0.364E-01    0.888E-02
RMM:   4    -0.113928028706E+03   -0.15403E-03   -0.91675E-04    75   0.160E-01    0.317E-02
RMM:   5    -0.113928053061E+03   -0.24355E-04   -0.17708E-04    73   0.729E-02    0.123E-02
RMM:   6    -0.113928063221E+03   -0.10160E-04   -0.34357E-05    52   0.318E-02    0.574E-03
RMM:   7    -0.113928073026E+03   -0.98051E-05   -0.85195E-06    45   0.157E-02
  10 F= -.11422660E+03 E0= -.11422660E+03  d E =-.277188E-02
       N       E                     dE             d eps       ncg     rms          rms(c)
DAV:   1    -0.113927529977E+03    0.53324E-03   -0.11959E+00    70   0.604E+00    0.294E-01
RMM:   2    -0.113928112135E+03   -0.58216E-03   -0.15212E-02    70   0.662E-01    0.163E-01
RMM:   3    -0.113928390556E+03   -0.27842E-03   -0.30758E-03    73   0.284E-01    0.697E-02
RMM:   4    -0.113928477992E+03   -0.87436E-04   -0.54114E-04    75   0.124E-01    0.242E-02
RMM:   5    -0.113928491067E+03   -0.13075E-04   -0.96464E-05    65   0.554E-02    0.107E-02
RMM:   6    -0.113928498279E+03   -0.72122E-05   -0.22457E-05    50   0.252E-02
  11 F= -.11422725E+03 E0= -.11422725E+03  d E =-.651087E-03
       N       E                     dE             d eps       ncg     rms          rms(c)
DAV:   1    -0.113928783257E+03   -0.29219E-03   -0.15883E+00    70   0.706E+00    0.341E-01
RMM:   2    -0.113929751596E+03   -0.96834E-03   -0.21388E-02    70   0.791E-01    0.187E-01
RMM:   3    -0.113930125730E+03   -0.37413E-03   -0.40193E-03    73   0.337E-01    0.834E-02
RMM:   4    -0.113930252284E+03   -0.12655E-03   -0.76580E-04    74   0.147E-01    0.289E-02
RMM:   5    -0.113930275208E+03   -0.22924E-04   -0.16147E-04    72   0.682E-02    0.111E-02
RMM:   6    -0.113930284144E+03   -0.89357E-05   -0.27745E-05    51   0.291E-02
  12 F= -.11422934E+03 E0= -.11422934E+03  d E =-.209114E-02
       N       E                     dE             d eps       ncg     rms          rms(c)
DAV:   1    -0.113930871055E+03   -0.59585E-03   -0.73657E-01    70   0.483E+00    0.232E-01
RMM:   2    -0.113931315709E+03   -0.44465E-03   -0.10113E-02    70   0.544E-01    0.127E-01
RMM:   3    -0.113931527430E+03   -0.21172E-03   -0.18751E-03    73   0.231E-01    0.577E-02
RMM:   4    -0.113931590839E+03   -0.63408E-04   -0.35819E-04    73   0.101E-01    0.200E-02
RMM:   5    -0.113931604041E+03   -0.13202E-04   -0.74777E-05    63   0.468E-02    0.744E-03
RMM:   6    -0.113931609642E+03   -0.56013E-05   -0.13155E-05    46   0.203E-02
  13 F= -.11423087E+03 E0= -.11423087E+03  d E =-.152908E-02
       N       E                     dE             d eps       ncg     rms          rms(c)
DAV:   1    -0.113932263607E+03   -0.65957E-03   -0.53425E-01    70   0.413E+00    0.195E-01
RMM:   2    -0.113932610507E+03   -0.34690E-03   -0.74398E-03    70   0.467E-01    0.106E-01
RMM:   3    -0.113932763954E+03   -0.15345E-03   -0.13235E-03    72   0.196E-01    0.493E-02
RMM:   4    -0.113932811313E+03   -0.47359E-04   -0.27157E-04    74   0.874E-02    0.171E-02
RMM:   5    -0.113932820571E+03   -0.92586E-05   -0.54494E-05    58   0.398E-02
  14 F= -.11423225E+03 E0= -.11423225E+03  d E =-.138656E-02
       N       E                     dE             d eps       ncg     rms          rms(c)
DAV:   1    -0.113932379475E+03    0.43184E-03   -0.16205E+00    70   0.719E+00    0.343E-01
RMM:   2    -0.113933503054E+03   -0.11236E-02   -0.22695E-02    70   0.815E-01    0.186E-01
RMM:   3    -0.113933910948E+03   -0.40789E-03   -0.41172E-03    73   0.344E-01    0.878E-02
RMM:   4    -0.113934042700E+03   -0.13175E-03   -0.79755E-04    74   0.152E-01    0.301E-02
RMM:   5    -0.113934067077E+03   -0.24377E-04   -0.16918E-04    74   0.697E-02    0.117E-02
RMM:   6    -0.113934075742E+03   -0.86650E-05   -0.26980E-05    50   0.291E-02
  15 F= -.11423380E+03 E0= -.11423380E+03  d E =-.154802E-02
       N       E                     dE             d eps       ncg     rms          rms(c)
DAV:   1    -0.113933946996E+03    0.12008E-03   -0.46020E-01    70   0.383E+00    0.181E-01
RMM:   2    -0.113934245167E+03   -0.29817E-03   -0.64209E-03    70   0.433E-01    0.986E-02
RMM:   3    -0.113934384267E+03   -0.13910E-03   -0.12015E-03    73   0.183E-01    0.464E-02
RMM:   4    -0.113934420552E+03   -0.36285E-04   -0.19643E-04    72   0.790E-02    0.154E-02
RMM:   5    -0.113934429184E+03   -0.86322E-05   -0.45821E-05    55   0.368E-02
  16 F= -.11423431E+03 E0= -.11423431E+03  d E =-.510335E-03
       N       E                     dE             d eps       ncg     rms          rms(c)
DAV:   1    -0.113933719654E+03    0.70090E-03   -0.94750E-01    70   0.550E+00    0.259E-01
RMM:   2    -0.113934381726E+03   -0.66207E-03   -0.13352E-02    70   0.624E-01    0.141E-01
RMM:   3    -0.113934647645E+03   -0.26592E-03   -0.24666E-03    73   0.263E-01    0.674E-02
RMM:   4    -0.113934718723E+03   -0.71078E-04   -0.41336E-04    73   0.115E-01    0.223E-02
RMM:   5    -0.113934733876E+03   -0.15153E-04   -0.98573E-05    65   0.533E-02    0.106E-02
RMM:   6    -0.113934739717E+03   -0.58414E-05   -0.16618E-05    49   0.232E-02
  17 F= -.11423484E+03 E0= -.11423484E+03  d E =-.528382E-03
       N       E                     dE             d eps       ncg     rms          rms(c)
DAV:   1    -0.113933082369E+03    0.16515E-02   -0.15350E+00    70   0.700E+00    0.330E-01
RMM:   2    -0.113934195545E+03   -0.11132E-02   -0.21697E-02    70   0.793E-01    0.178E-01
RMM:   3    -0.113934597018E+03   -0.40147E-03   -0.39799E-03    73   0.333E-01    0.860E-02
RMM:   4    -0.113934709375E+03   -0.11236E-03   -0.66002E-04    73   0.145E-01    0.285E-02
RMM:   5    -0.113934732236E+03   -0.22861E-04   -0.15793E-04    74   0.669E-02    0.135E-02
RMM:   6    -0.113934740009E+03   -0.77729E-05   -0.24564E-05    50   0.282E-02
  18 F= -.11423511E+03 E0= -.11423511E+03  d E =-.269682E-03
       N       E                     dE             d eps       ncg     rms          rms(c)
DAV:   1    -0.113932995593E+03    0.17366E-02   -0.13226E+00    70   0.649E+00    0.305E-01
RMM:   2    -0.113933953220E+03   -0.95763E-03   -0.18723E-02    70   0.737E-01    0.165E-01
RMM:   3    -0.113934304046E+03   -0.35083E-03   -0.34229E-03    73   0.309E-01    0.798E-02
RMM:   4    -0.113934403206E+03   -0.99161E-04   -0.56853E-04    73   0.134E-01    0.263E-02
RMM:   5    -0.113934423761E+03   -0.20554E-04   -0.13349E-04    71   0.618E-02    0.122E-02
RMM:   6    -0.113934431384E+03   -0.76238E-05   -0.21819E-05    49   0.264E-02
  19 F= -.11423504E+03 E0= -.11423504E+03  d E =0.658277E-04
       N       E                     dE             d eps       ncg     rms          rms(c)
DAV:   1    -0.113930370346E+03    0.40534E-02   -0.27378E+00    70   0.934E+00    0.442E-01
RMM:   2    -0.113932450171E+03   -0.20798E-02   -0.38967E-02    70   0.106E+00    0.238E-01
RMM:   3    -0.113933108938E+03   -0.65877E-03   -0.71198E-03    73   0.446E-01    0.117E-01
RMM:   4    -0.113933306483E+03   -0.19755E-03   -0.11892E-03    73   0.194E-01    0.386E-02
RMM:   5    -0.113933346264E+03   -0.39781E-04   -0.28340E-04    80   0.893E-02    0.186E-02
RMM:   6    -0.113933358612E+03   -0.12348E-04   -0.41483E-05    53   0.363E-02    0.805E-03
RMM:   7    -0.113933368653E+03   -0.10041E-04   -0.10017E-05    47   0.174E-02    0.330E-03
RMM:   8    -0.113933377632E+03   -0.89789E-05   -0.33664E-06    45   0.971E-03
  20 F= -.11423433E+03 E0= -.11423433E+03  d E =0.717695E-03
       N       E                     dE             d eps       ncg     rms          rms(c)
DAV:   1    -0.113932465868E+03    0.90278E-03   -0.53645E-01    70   0.413E+00    0.192E-01
RMM:   2    -0.113932841427E+03   -0.37556E-03   -0.76027E-03    70   0.468E-01    0.105E-01
RMM:   3    -0.113933001817E+03   -0.16039E-03   -0.13830E-03    73   0.196E-01    0.503E-02
RMM:   4    -0.113933045108E+03   -0.43291E-04   -0.23031E-04    73   0.850E-02    0.166E-02
RMM:   5    -0.113933053690E+03   -0.85822E-05   -0.50549E-05    57   0.391E-02
  21 F= -.11423414E+03 E0= -.11423414E+03  d E =0.184787E-03
       N       E                     dE             d eps       ncg     rms          rms(c)
DAV:   1    -0.113927613058E+03    0.54320E-02   -0.32142E+00    70   0.101E+01    0.479E-01
RMM:   2    -0.113930115600E+03   -0.25025E-02   -0.45934E-02    70   0.115E+00    0.258E-01
RMM:   3    -0.113930854291E+03   -0.73869E-03   -0.83833E-03    73   0.484E-01    0.127E-01
RMM:   4    -0.113931091942E+03   -0.23765E-03   -0.14203E-03    73   0.211E-01    0.418E-02
RMM:   5    -0.113931136807E+03   -0.44865E-04   -0.32990E-04    80   0.972E-02    0.204E-02
RMM:   6    -0.113931150356E+03   -0.13549E-04   -0.49897E-05    55   0.398E-02    0.881E-03
RMM:   7    -0.113931160999E+03   -0.10643E-04   -0.11830E-05    48   0.191E-02    0.344E-03
RMM:   8    -0.113931170339E+03   -0.93399E-05   -0.39777E-06    45   0.107E-02
  22 F= -.11423260E+03 E0= -.11423260E+03  d E =0.154362E-02
       N       E                     dE             d eps       ncg     rms          rms(c)
DAV:   1    -0.113925779329E+03    0.53817E-02   -0.32863E+00    70   0.102E+01    0.484E-01
RMM:   2    -0.113928359122E+03   -0.25798E-02   -0.46961E-02    70   0.116E+00    0.259E-01
RMM:   3    -0.113929104761E+03   -0.74564E-03   -0.85184E-03    73   0.488E-01    0.128E-01
RMM:   4    -0.113929345930E+03   -0.24117E-03   -0.14399E-03    73   0.212E-01    0.421E-02
RMM:   5    -0.113929390707E+03   -0.44777E-04   -0.32210E-04    79   0.970E-02    0.200E-02
RMM:   6    -0.113929403997E+03   -0.13290E-04   -0.53067E-05    56   0.405E-02    0.867E-03
RMM:   7    -0.113929414345E+03   -0.10349E-04   -0.12301E-05    48   0.199E-02    0.332E-03
RMM:   8    -0.113929423066E+03   -0.87201E-05   -0.40638E-06    45   0.109E-02
  23 F= -.11423117E+03 E0= -.11423117E+03  d E =0.143285E-02
       N       E                     dE             d eps       ncg     rms          rms(c)
DAV:   1    -0.113927051252E+03    0.23631E-02   -0.14296E+00    70   0.674E+00    0.316E-01
RMM:   2    -0.113928098682E+03   -0.10474E-02   -0.20339E-02    70   0.764E-01    0.171E-01
RMM:   3    -0.113928485498E+03   -0.38682E-03   -0.36859E-03    73   0.320E-01    0.830E-02
RMM:   4    -0.113928595897E+03   -0.11040E-03   -0.62385E-04    73   0.139E-01    0.272E-02
RMM:   5    -0.113928616273E+03   -0.20376E-04   -0.13315E-04    70   0.635E-02    0.123E-02
RMM:   6    -0.113928623356E+03   -0.70824E-05   -0.24966E-05    50   0.281E-02
  24 F= -.11423055E+03 E0= -.11423055E+03  d E =0.612155E-03
       N       E                     dE             d eps       ncg     rms          rms(c)
DAV:   1    -0.113929186173E+03   -0.56990E-03   -0.13146E-02    92   0.653E-01    0.314E-02
RMM:   2    -0.113929196441E+03   -0.10268E-04   -0.17280E-04    70   0.724E-02    0.169E-02
RMM:   3    -0.113929204526E+03   -0.80849E-05   -0.30007E-05    51   0.302E-02
  25 F= -.11423111E+03 E0= -.11423111E+03  d E =-.553768E-03
       N       E                     dE             d eps       ncg     rms          rms(c)
DAV:   1    -0.113929166948E+03    0.29494E-04   -0.11694E-01    70   0.192E+00    0.899E-02
RMM:   2    -0.113929246616E+03   -0.79669E-04   -0.16426E-03    70   0.216E-01    0.479E-02
RMM:   3    -0.113929282589E+03   -0.35973E-04   -0.29342E-04    73   0.903E-02    0.228E-02
RMM:   4    -0.113929292788E+03   -0.10199E-04   -0.48963E-05    58   0.388E-02    0.777E-03
RMM:   5    -0.113929295025E+03   -0.22368E-05   -0.93469E-06    45   0.171E-02
  26 F= -.11423124E+03 E0= -.11423124E+03  d E =-.135959E-03
       N       E                     dE             d eps       ncg     rms          rms(c)
DAV:   1    -0.113920846058E+03    0.84467E-02   -0.95124E+00    70   0.173E+01    0.823E-01
RMM:   2    -0.113929191543E+03   -0.83455E-02   -0.13807E-01    70   0.198E+00    0.436E-01
RMM:   3    -0.113930968704E+03   -0.17772E-02   -0.24673E-02    73   0.828E-01    0.224E-01
RMM:   4    -0.113931498052E+03   -0.52935E-03   -0.42878E-03    73   0.362E-01    0.726E-02
RMM:   5    -0.113931630975E+03   -0.13292E-03   -0.92024E-04    80   0.165E-01    0.349E-02
RMM:   6    -0.113931662815E+03   -0.31840E-04   -0.16032E-04    68   0.695E-02    0.150E-02
RMM:   7    -0.113931684093E+03   -0.21278E-04   -0.34475E-05    50   0.329E-02    0.598E-03
RMM:   8    -0.113931701847E+03   -0.17754E-04   -0.98781E-06    47   0.164E-02    0.202E-03
RMM:   9    -0.113931715294E+03   -0.13447E-04   -0.35606E-06    45   0.944E-03    0.143E-03
RMM:  10    -0.113931725007E+03   -0.97134E-05   -0.14022E-06    40   0.564E-03
  27 F= -.11423401E+03 E0= -.11423401E+03  d E =-.276514E-02
       N       E                     dE             d eps       ncg     rms          rms(c)
DAV:   1    -0.113931204794E+03    0.51050E-03   -0.22269E-01    70   0.265E+00    0.125E-01
RMM:   2    -0.113931344696E+03   -0.13990E-03   -0.31328E-03    70   0.300E-01    0.670E-02
RMM:   3    -0.113931423976E+03   -0.79280E-04   -0.54477E-04    72   0.125E-01    0.324E-02
RMM:   4    -0.113931449416E+03   -0.25440E-04   -0.10486E-04    70   0.555E-02    0.105E-02
RMM:   5    -0.113931453667E+03   -0.42510E-05   -0.17792E-05    48   0.244E-02
  28 F= -.11423369E+03 E0= -.11423369E+03  d E =0.322410E-03
       N       E                     dE             d eps       ncg     rms          rms(c)
DAV:   1    -0.113931714726E+03   -0.26531E-03   -0.29763E-01    70   0.307E+00    0.143E-01
RMM:   2    -0.113931905549E+03   -0.19082E-03   -0.41699E-03    70   0.345E-01    0.772E-02
RMM:   3    -0.113932002146E+03   -0.96597E-04   -0.73996E-04    73   0.143E-01    0.370E-02
RMM:   4    -0.113932032904E+03   -0.30759E-04   -0.12631E-04    71   0.618E-02    0.121E-02
RMM:   5    -0.113932035647E+03   -0.27426E-05   -0.22718E-05    50   0.276E-02
  29 F= -.11423432E+03 E0= -.11423432E+03  d E =-.634219E-03
       N       E                     dE             d eps       ncg     rms          rms(c)
DAV:   1    -0.113932361202E+03   -0.32830E-03   -0.15289E-01    70   0.220E+00    0.101E-01
RMM:   2    -0.113932454493E+03   -0.93291E-04   -0.21998E-03    70   0.251E-01    0.553E-02
RMM:   3    -0.113932511109E+03   -0.56616E-04   -0.40235E-04    73   0.106E-01    0.272E-02
RMM:   4    -0.113932528493E+03   -0.17384E-04   -0.71054E-05    64   0.466E-02    0.875E-03
RMM:   5    -0.113932530938E+03   -0.24451E-05   -0.13677E-05    46   0.210E-02
  30 F= -.11423485E+03 E0= -.11423485E+03  d E =-.529612E-03
       N       E                     dE             d eps       ncg     rms          rms(c)
DAV:   1    -0.113932867914E+03   -0.33942E-03   -0.20426E-01    70   0.254E+00    0.116E-01
RMM:   2    -0.113932997537E+03   -0.12962E-03   -0.29428E-03    70   0.289E-01    0.637E-02
RMM:   3    -0.113933070989E+03   -0.73452E-04   -0.54004E-04    73   0.122E-01    0.311E-02
RMM:   4    -0.113933093824E+03   -0.22835E-04   -0.94652E-05    67   0.536E-02    0.103E-02
RMM:   5    -0.113933097268E+03   -0.34439E-05   -0.18347E-05    49   0.243E-02
  31 F= -.11423545E+03 E0= -.11423545E+03  d E =-.605126E-03
       N       E                     dE             d eps       ncg     rms          rms(c)
DAV:   1    -0.113838071869E+03    0.95022E-01   -0.76103E+01    70   0.489E+01    0.270E+00
RMM:   2    -0.113922891660E+03   -0.84820E-01   -0.12610E+00    70   0.597E+00    0.124E+00
RMM:   3    -0.113937644550E+03   -0.14753E-01   -0.22187E-01    74   0.248E+00    0.807E-01
RMM:   4    -0.113939329483E+03   -0.16849E-02   -0.38324E-02    72   0.108E+00    0.256E-01
RMM:   5    -0.113940320233E+03   -0.99075E-03   -0.79090E-03    76   0.502E-01    0.111E-01
RMM:   6    -0.113940621804E+03   -0.30157E-03   -0.21085E-03    81   0.232E-01    0.641E-02
RMM:   7    -0.113940739854E+03   -0.11805E-03   -0.37270E-04    76   0.104E-01    0.264E-02
RMM:   8    -0.113940818393E+03   -0.78538E-04   -0.91715E-05    55   0.462E-02    0.837E-03
RMM:   9    -0.113940877127E+03   -0.58734E-04   -0.24007E-05    48   0.218E-02    0.941E-03
RMM:  10    -0.113940933340E+03   -0.56213E-04   -0.81169E-06    45   0.117E-02    0.472E-03
RMM:  11    -0.113940939965E+03   -0.66251E-05   -0.21164E-06    42   0.664E-03
  32 F= -.11424389E+03 E0= -.11424389E+03  d E =-.843913E-02
       N       E                     dE             d eps       ncg     rms          rms(c)
DAV:   1    -0.113937310507E+03    0.36228E-02   -0.30074E+00    70   0.971E+00    0.452E-01
RMM:   2    -0.113939680882E+03   -0.23704E-02   -0.42677E-02    70   0.110E+00    0.245E-01
RMM:   3    -0.113940350451E+03   -0.66957E-03   -0.76716E-03    73   0.461E-01    0.118E-01
RMM:   4    -0.113940588215E+03   -0.23776E-03   -0.13861E-03    75   0.201E-01    0.393E-02
RMM:   5    -0.113940624339E+03   -0.36124E-04   -0.24617E-04    77   0.881E-02    0.164E-02
RMM:   6    -0.113940633846E+03   -0.95076E-05   -0.47106E-05    56   0.381E-02
  33 F= -.11424350E+03 E0= -.11424350E+03  d E =0.396129E-03
       N       E                     dE             d eps       ncg     rms          rms(c)
DAV:   1    -0.113940262276E+03    0.36206E-03   -0.13713E+00    70   0.656E+00    0.309E-01
RMM:   2    -0.113941288065E+03   -0.10258E-02   -0.19478E-02    70   0.742E-01    0.166E-01
RMM:   3    -0.113941657135E+03   -0.36907E-03   -0.34994E-03    73   0.311E-01    0.807E-02
RMM:   4    -0.113941769391E+03   -0.11226E-03   -0.62314E-04    74   0.136E-01    0.272E-02
RMM:   5    -0.113941782971E+03   -0.13580E-04   -0.11444E-04    69   0.602E-02    0.120E-02
RMM:   6    -0.113941785771E+03   -0.28000E-05   -0.22221E-05    49   0.268E-02
  34 F= -.11424471E+03 E0= -.11424471E+03  d E =-.121154E-02
       N       E                     dE             d eps       ncg     rms          rms(c)
DAV:   1    -0.113942523483E+03   -0.74051E-03   -0.71585E-02    76   0.150E+00    0.692E-02
RMM:   2    -0.113942571310E+03   -0.47826E-04   -0.10322E-03    70   0.171E-01    0.379E-02
RMM:   3    -0.113942594857E+03   -0.23548E-04   -0.18356E-04    72   0.720E-02    0.186E-02
RMM:   4    -0.113942601960E+03   -0.71025E-05   -0.36098E-05    53   0.320E-02
  35 F= -.11424554E+03 E0= -.11424554E+03  d E =-.827441E-03
       N       E                     dE             d eps       ncg     rms          rms(c)
DAV:   1    -0.113941716374E+03    0.87848E-03   -0.40216E+00    70   0.112E+01    0.523E-01
RMM:   2    -0.113944995193E+03   -0.32788E-02   -0.57932E-02    70   0.128E+00    0.283E-01
RMM:   3    -0.113945879550E+03   -0.88436E-03   -0.10483E-02    73   0.536E-01    0.140E-01
RMM:   4    -0.113946167359E+03   -0.28781E-03   -0.18636E-03    74   0.234E-01    0.462E-02
RMM:   5    -0.113946214513E+03   -0.47154E-04   -0.34959E-04    79   0.104E-01    0.202E-02
RMM:   6    -0.113946228630E+03   -0.14117E-04   -0.64927E-05    58   0.445E-02    0.963E-03
RMM:   7    -0.113946240222E+03   -0.11592E-04   -0.14465E-05    48   0.214E-02    0.315E-03
RMM:   8    -0.113946248436E+03   -0.82137E-05   -0.45454E-06    45   0.114E-02
  36 F= -.11424927E+03 E0= -.11424927E+03  d E =-.373257E-02
       N       E                     dE             d eps       ncg     rms          rms(c)
DAV:   1    -0.113946645693E+03   -0.40547E-03   -0.11754E-02    92   0.603E-01    0.293E-02
RMM:   2    -0.113946653984E+03   -0.82912E-05   -0.21858E-04    70   0.743E-02    0.169E-02
RMM:   3    -0.113946657460E+03   -0.34753E-05   -0.29612E-05    50   0.302E-02
  37 F= -.11424966E+03 E0= -.11424966E+03  d E =-.395279E-03
       N       E                     dE             d eps       ncg     rms          rms(c)
DAV:   1    -0.113947273464E+03   -0.61948E-03   -0.11608E-01    70   0.190E+00    0.880E-02
RMM:   2    -0.113947354353E+03   -0.80890E-04   -0.16582E-03    70   0.215E-01    0.474E-02
RMM:   3    -0.113947389480E+03   -0.35127E-04   -0.29203E-04    72   0.902E-02    0.225E-02
RMM:   4    -0.113947399481E+03   -0.10001E-04   -0.56287E-05    59   0.398E-02    0.816E-03
RMM:   5    -0.113947401570E+03   -0.20884E-05   -0.92357E-06    45   0.170E-02
  38 F= -.11425042E+03 E0= -.11425042E+03  d E =-.757776E-03
       N       E                     dE             d eps       ncg     rms          rms(c)
DAV:   1    -0.113948070299E+03   -0.67082E-03   -0.64265E-02    70   0.142E+00    0.652E-02
RMM:   2    -0.113948116125E+03   -0.45827E-04   -0.93440E-04    70   0.162E-01    0.358E-02
RMM:   3    -0.113948137348E+03   -0.21222E-04   -0.17437E-04    72   0.688E-02    0.174E-02
RMM:   4    -0.113948142608E+03   -0.52597E-05   -0.29292E-05    51   0.299E-02
  39 F= -.11425117E+03 E0= -.11425117E+03  d E =-.747112E-03
       N       E                     dE             d eps       ncg     rms          rms(c)
DAV:   1    -0.113949337864E+03   -0.12005E-02   -0.29566E-01    70   0.304E+00    0.141E-01
RMM:   2    -0.113949544837E+03   -0.20697E-03   -0.42251E-03    70   0.346E-01    0.771E-02
RMM:   3    -0.113949636157E+03   -0.91320E-04   -0.76387E-04    73   0.145E-01    0.379E-02
RMM:   4    -0.113949658662E+03   -0.22505E-04   -0.13715E-04    72   0.630E-02    0.121E-02
RMM:   5    -0.113949662199E+03   -0.35363E-05   -0.22444E-05    49   0.278E-02
  40 F= -.11425270E+03 E0= -.11425270E+03  d E =-.153209E-02
       N       E                     dE             d eps       ncg     rms          rms(c)
DAV:   1    -0.113951227259E+03   -0.15686E-02   -0.48386E-01    70   0.388E+00    0.178E-01
RMM:   2    -0.113951573481E+03   -0.34622E-03   -0.69974E-03    70   0.444E-01    0.980E-02
RMM:   3    -0.113951724740E+03   -0.15126E-03   -0.12867E-03    73   0.188E-01    0.475E-02
RMM:   4    -0.113951762693E+03   -0.37953E-04   -0.22884E-04    73   0.820E-02    0.161E-02
RMM:   5    -0.113951769101E+03   -0.64074E-05   -0.41009E-05    55   0.370E-02
  41 F= -.11425482E+03 E0= -.11425482E+03  d E =-.212302E-02
       N       E                     dE             d eps       ncg     rms          rms(c)
DAV:   1    -0.113928635634E+03    0.23127E-01   -0.32534E+01    70   0.319E+01    0.157E+00
RMM:   2    -0.113959610116E+03   -0.30974E-01   -0.49062E-01    70   0.372E+00    0.807E-01
RMM:   3    -0.113965263102E+03   -0.56530E-02   -0.87054E-02    73   0.155E+00    0.448E-01
RMM:   4    -0.113966595495E+03   -0.13324E-02   -0.15668E-02    73   0.683E-01    0.141E-01
RMM:   5    -0.113966999305E+03   -0.40381E-03   -0.29914E-03    78   0.307E-01    0.672E-02
RMM:   6    -0.113967110091E+03   -0.11079E-03   -0.68377E-04    79   0.137E-01    0.321E-02
RMM:   7    -0.113967165223E+03   -0.55132E-04   -0.13361E-04    61   0.625E-02    0.134E-02
RMM:   8    -0.113967202108E+03   -0.36885E-04   -0.33650E-05    50   0.290E-02    0.521E-03
RMM:   9    -0.113967234271E+03   -0.32163E-04   -0.10108E-05    47   0.150E-02    0.436E-03
RMM:  10    -0.113967267840E+03   -0.33569E-04   -0.44101E-06    45   0.890E-03    0.278E-03
RMM:  11    -0.113967272205E+03   -0.43648E-05   -0.11012E-06    37   0.519E-03
  42 F= -.11427038E+03 E0= -.11427038E+03  d E =-.155511E-01
       N       E                     dE             d eps       ncg     rms          rms(c)
DAV:   1    -0.113968998825E+03   -0.17310E-02   -0.44133E-01    70   0.370E+00    0.172E-01
RMM:   2    -0.113969307590E+03   -0.30877E-03   -0.63565E-03    70   0.421E-01    0.938E-02
RMM:   3    -0.113969454043E+03   -0.14645E-03   -0.11772E-03    74   0.178E-01    0.445E-02
RMM:   4    -0.113969490678E+03   -0.36635E-04   -0.19384E-04    72   0.762E-02    0.154E-02
RMM:   5    -0.113969496687E+03   -0.60093E-05   -0.34475E-05    52   0.345E-02
  43 F= -.11427260E+03 E0= -.11427260E+03  d E =-.221952E-02
       N       E                     dE             d eps       ncg     rms          rms(c)
DAV:   1    -0.113969894915E+03   -0.40424E-03   -0.14814E-03    92   0.217E-01    0.133E-02
RMM:   2    -0.113969895672E+03   -0.75763E-06   -0.32306E-05    51   0.312E-02
  44 F= -.11427299E+03 E0= -.11427299E+03  d E =-.392117E-03
       N       E                     dE             d eps       ncg     rms          rms(c)
DAV:   1    -0.113970929364E+03   -0.10344E-02   -0.74610E-02    76   0.152E+00    0.711E-02
RMM:   2    -0.113970978013E+03   -0.48649E-04   -0.10813E-03    70   0.174E-01    0.399E-02
RMM:   3    -0.113971003935E+03   -0.25923E-04   -0.19309E-04    72   0.734E-02    0.188E-02
RMM:   4    -0.113971011417E+03   -0.74815E-05   -0.36045E-05    53   0.325E-02
  45 F= -.11427410E+03 E0= -.11427410E+03  d E =-.111011E-02
       N       E                     dE             d eps       ncg     rms          rms(c)
DAV:   1    -0.113974074632E+03   -0.30707E-02   -0.10006E+00    70   0.558E+00    0.259E-01
RMM:   2    -0.113974797873E+03   -0.72324E-03   -0.14296E-02    70   0.636E-01    0.141E-01
RMM:   3    -0.113975081310E+03   -0.28344E-03   -0.25418E-03    72   0.267E-01    0.681E-02
RMM:   4    -0.113975162250E+03   -0.80939E-04   -0.50265E-04    75   0.119E-01    0.223E-02
RMM:   5    -0.113975173683E+03   -0.11433E-04   -0.78943E-05    65   0.512E-02    0.907E-03
RMM:   6    -0.113975178243E+03   -0.45604E-05   -0.17898E-05    49   0.235E-02
  46 F= -.11427824E+03 E0= -.11427824E+03  d E =-.413856E-02
       N       E                     dE             d eps       ncg     rms          rms(c)
DAV:   1    -0.113870687738E+03    0.10449E+00   -0.10646E+02    70   0.574E+01    0.312E+00
RMM:   2    -0.113991407821E+03   -0.12072E+00   -0.17895E+00    70   0.710E+00    0.146E+00
RMM:   3    -0.114010744411E+03   -0.19337E-01   -0.30506E-01    73   0.292E+00    0.942E-01
RMM:   4    -0.114012246689E+03   -0.15023E-02   -0.55117E-02    72   0.130E+00    0.291E-01
RMM:   5    -0.114013647223E+03   -0.14005E-02   -0.11707E-02    77   0.595E-01    0.126E-01
RMM:   6    -0.114014018253E+03   -0.37103E-03   -0.27874E-03    81   0.268E-01    0.753E-02
RMM:   7    -0.114014177280E+03   -0.15903E-03   -0.56115E-04    78   0.122E-01    0.290E-02
RMM:   8    -0.114014267842E+03   -0.90562E-04   -0.11864E-04    61   0.506E-02    0.136E-02
RMM:   9    -0.114014358223E+03   -0.90380E-04   -0.22586E-05    47   0.215E-02    0.283E-03
RMM:  10    -0.114014402870E+03   -0.44648E-04   -0.75139E-06    46   0.113E-02    0.179E-03
RMM:  11    -0.114014470501E+03   -0.67630E-04   -0.55681E-06    45   0.808E-03    0.112E-03
RMM:  12    -0.114014500973E+03   -0.30472E-04   -0.28975E-06    38   0.547E-03    0.855E-04
RMM:  13    -0.114014535557E+03   -0.34584E-04   -0.45881E-06    37   0.588E-03    0.108E-03
RMM:  14    -0.114014542611E+03   -0.70540E-05   -0.10432E-06    28   0.390E-03
  47 F= -.11431711E+03 E0= -.11431711E+03  d E =-.388723E-01
       N       E                     dE             d eps       ncg     rms          rms(c)
DAV:   1    -0.114005252427E+03    0.92831E-02   -0.31771E+00    70   0.993E+00    0.473E-01
RMM:   2    -0.114007835963E+03   -0.25835E-02   -0.45736E-02    70   0.114E+00    0.252E-01
RMM:   3    -0.114008482586E+03   -0.64662E-03   -0.80418E-03    72   0.476E-01    0.124E-01
RMM:   4    -0.114008719990E+03   -0.23740E-03   -0.16008E-03    75   0.213E-01    0.403E-02
RMM:   5    -0.114008756460E+03   -0.36470E-04   -0.26077E-04    77   0.918E-02    0.170E-02
RMM:   6    -0.114008766584E+03   -0.10124E-04   -0.56614E-05    58   0.410E-02    0.765E-03
RMM:   7    -0.114008774518E+03   -0.79340E-05   -0.12751E-05    48   0.203E-02
  48 F= -.11431145E+03 E0= -.11431145E+03  d E =0.565507E-02
       N       E                     dE             d eps       ncg     rms          rms(c)
DAV:   1    -0.114011850401E+03   -0.30838E-02   -0.14005E+00    70   0.659E+00    0.309E-01
RMM:   2    -0.114012897230E+03   -0.10468E-02   -0.19912E-02    70   0.750E-01    0.167E-01
RMM:   3    -0.114013242842E+03   -0.34561E-03   -0.35151E-03    72   0.314E-01    0.803E-02
RMM:   4    -0.114013370101E+03   -0.12726E-03   -0.67963E-04    75   0.139E-01    0.268E-02
RMM:   5    -0.114013383784E+03   -0.13683E-04   -0.10814E-04    67   0.600E-02    0.111E-02
RMM:   6    -0.114013387080E+03   -0.32955E-05   -0.24831E-05    50   0.279E-02
  49 F= -.11431598E+03 E0= -.11431598E+03  d E =-.452801E-02
       N       E                     dE             d eps       ncg     rms          rms(c)
DAV:   1    -0.114015334640E+03   -0.19509E-02   -0.19529E-01    76   0.245E+00    0.112E-01
RMM:   2    -0.114015460008E+03   -0.12537E-03   -0.28351E-03    70   0.282E-01    0.618E-02
RMM:   3    -0.114015531929E+03   -0.71921E-04   -0.51752E-04    72   0.119E-01    0.296E-02
RMM:   4    -0.114015550256E+03   -0.18327E-04   -0.96444E-05    67   0.525E-02    0.101E-02
RMM:   5    -0.114015553216E+03   -0.29604E-05   -0.16059E-05    47   0.231E-02
  50 F= -.11431811E+03 E0= -.11431811E+03  d E =-.213023E-02
       N       E                     dE             d eps       ncg     rms          rms(c)
DAV:   1    -0.114019161190E+03   -0.36109E-02   -0.13693E+00    70   0.650E+00    0.300E-01
RMM:   2    -0.114020194235E+03   -0.10330E-02   -0.19600E-02    70   0.743E-01    0.164E-01
RMM:   3    -0.114020541046E+03   -0.34681E-03   -0.35214E-03    72   0.313E-01    0.780E-02
RMM:   4    -0.114020656168E+03   -0.11512E-03   -0.67844E-04    75   0.139E-01    0.260E-02
RMM:   5    -0.114020671418E+03   -0.15250E-04   -0.11171E-04    68   0.606E-02    0.106E-02
RMM:   6    -0.114020677064E+03   -0.56461E-05   -0.25130E-05    50   0.280E-02
  51 F= -.11432314E+03 E0= -.11432314E+03  d E =-.502896E-02
       N       E                     dE             d eps       ncg     rms          rms(c)
DAV:   1    -0.114022883658E+03   -0.22122E-02   -0.19381E-01    70   0.245E+00    0.114E-01
RMM:   2    -0.114023010251E+03   -0.12659E-03   -0.27904E-03    70   0.282E-01    0.622E-02
RMM:   3    -0.114023069302E+03   -0.59050E-04   -0.49982E-04    72   0.118E-01    0.302E-02
RMM:   4    -0.114023088104E+03   -0.18802E-04   -0.96867E-05    68   0.525E-02    0.101E-02
RMM:   5    -0.114023092162E+03   -0.40582E-05   -0.15505E-05    47   0.228E-02
  52 F= -.11432550E+03 E0= -.11432550E+03  d E =-.236197E-02
       N       E                     dE             d eps       ncg     rms          rms(c)
DAV:   1    -0.114025716123E+03   -0.26280E-02   -0.45788E-01    70   0.375E+00    0.171E-01
RMM:   2    -0.114026039024E+03   -0.32290E-03   -0.66691E-03    70   0.431E-01    0.946E-02
RMM:   3    -0.114026184311E+03   -0.14529E-03   -0.12185E-03    72   0.182E-01    0.453E-02
RMM:   4    -0.114026224724E+03   -0.40413E-04   -0.22961E-04    74   0.813E-02    0.159E-02
RMM:   5    -0.114026231023E+03   -0.62987E-05   -0.39574E-05    54   0.361E-02
  53 F= -.11432859E+03 E0= -.11432859E+03  d E =-.308284E-02
       N       E                     dE             d eps       ncg     rms          rms(c)
DAV:   1    -0.113749641385E+03    0.27658E+00   -0.21091E+02    70   0.803E+01    0.493E+00
RMM:   2    -0.114039022570E+03   -0.28938E+00   -0.40978E+00    70   0.108E+01    0.205E+00
RMM:   3    -0.114081463804E+03   -0.42441E-01   -0.66062E-01    72   0.437E+00    0.151E+00
RMM:   4    -0.114081097967E+03    0.36584E-03   -0.12517E-01    72   0.196E+00    0.477E-01
RMM:   5    -0.114084232983E+03   -0.31350E-02   -0.28207E-02    76   0.916E-01    0.178E-01
RMM:   6    -0.114084989769E+03   -0.75679E-03   -0.65133E-03    82   0.411E-01    0.125E-01
RMM:   7    -0.114085314383E+03   -0.32461E-03   -0.14608E-03    76   0.196E-01    0.445E-02
RMM:   8    -0.114085461523E+03   -0.14714E-03   -0.31598E-04    74   0.837E-02    0.265E-02
RMM:   9    -0.114085603328E+03   -0.14181E-03   -0.52978E-05    55   0.302E-02    0.812E-03
RMM:  10    -0.114085696479E+03   -0.93150E-04   -0.18765E-05    49   0.171E-02    0.460E-03
RMM:  11    -0.114085753206E+03   -0.56727E-04   -0.66033E-06    45   0.983E-03    0.250E-03
RMM:  12    -0.114085845359E+03   -0.92153E-04   -0.72290E-06    43   0.843E-03    0.340E-03
RMM:  13    -0.114085894838E+03   -0.49479E-04   -0.61120E-06    40   0.681E-03    0.156E-03
RMM:  14    -0.114085921523E+03   -0.26685E-04   -0.35613E-06    38   0.565E-03    0.159E-03
RMM:  15    -0.114085924700E+03   -0.31765E-05   -0.12216E-06    30   0.399E-03
  54 F= -.11438656E+03 E0= -.11438656E+03  d E =-.579761E-01
       N       E                     dE             d eps       ncg     rms          rms(c)
DAV:   1    -0.113923507993E+03    0.16241E+00   -0.86682E+01    70   0.517E+01    0.307E+00
RMM:   2    -0.114028750103E+03   -0.10524E+00   -0.15146E+00    70   0.649E+00    0.131E+00
RMM:   3    -0.114047633204E+03   -0.18883E-01   -0.27698E-01    74   0.270E+00    0.923E-01
RMM:   4    -0.114048195353E+03   -0.56215E-03   -0.44589E-02    71   0.120E+00    0.270E-01
RMM:   5    -0.114049231834E+03   -0.10365E-02   -0.10094E-02    77   0.550E-01    0.152E-01
RMM:   6    -0.114049530069E+03   -0.29824E-03   -0.22148E-03    79   0.246E-01    0.890E-02
RMM:   7    -0.114049684320E+03   -0.15425E-03   -0.48825E-04    75   0.119E-01    0.177E-02
RMM:   8    -0.114049754145E+03   -0.69824E-04   -0.11877E-04    62   0.533E-02    0.116E-02
RMM:   9    -0.114049844595E+03   -0.90450E-04   -0.26132E-05    48   0.240E-02    0.426E-03
RMM:  10    -0.114049872708E+03   -0.28113E-04   -0.90143E-06    46   0.135E-02    0.539E-03
RMM:  11    -0.114049919219E+03   -0.46512E-04   -0.42257E-06    44   0.814E-03    0.393E-03
RMM:  12    -0.114049955161E+03   -0.35942E-04   -0.30454E-06    42   0.603E-03    0.230E-03
RMM:  13    -0.114049979524E+03   -0.24362E-04   -0.27034E-06    34   0.509E-03    0.425E-03
RMM:  14    -0.114049989975E+03   -0.10452E-04   -0.13298E-06    33   0.418E-03    0.129E-03
RMM:  15    -0.114049993132E+03   -0.31573E-05   -0.42747E-07    27   0.330E-03
  55 F= -.11435180E+03 E0= -.11435180E+03  d E =0.347628E-01
       N       E                     dE             d eps       ncg     rms          rms(c)
DAV:   1    -0.114054414596E+03   -0.44246E-02   -0.38573E+00    70   0.109E+01    0.501E-01
RMM:   2    -0.114057499759E+03   -0.30852E-02   -0.55037E-02    70   0.124E+00    0.275E-01
RMM:   3    -0.114058335703E+03   -0.83594E-03   -0.98372E-03    72   0.522E-01    0.130E-01
RMM:   4    -0.114058604581E+03   -0.26888E-03   -0.18314E-03    74   0.231E-01    0.425E-02
RMM:   5    -0.114058644935E+03   -0.40354E-04   -0.34016E-04    78   0.102E-01    0.180E-02
RMM:   6    -0.114058656590E+03   -0.11655E-04   -0.66088E-05    58   0.443E-02    0.830E-03
RMM:   7    -0.114058665409E+03   -0.88193E-05   -0.15149E-05    48   0.215E-02
  56 F= -.11436023E+03 E0= -.11436023E+03  d E =-.843489E-02
       N       E                     dE             d eps       ncg     rms          rms(c)
DAV:   1    -0.114062129675E+03   -0.34731E-02   -0.77841E-01    70   0.489E+00    0.222E-01
RMM:   2    -0.114062705492E+03   -0.57582E-03   -0.11205E-02    70   0.560E-01    0.123E-01
RMM:   3    -0.114062927937E+03   -0.22245E-03   -0.20350E-03    72   0.236E-01    0.580E-02
RMM:   4    -0.114062990104E+03   -0.62167E-04   -0.37376E-04    73   0.105E-01    0.194E-02
RMM:   5    -0.114063000988E+03   -0.10884E-04   -0.69990E-05    63   0.471E-02    0.810E-03
RMM:   6    -0.114063005681E+03   -0.46930E-05   -0.14970E-05    47   0.217E-02
  57 F= -.11436446E+03 E0= -.11436446E+03  d E =-.422394E-02
       N       E                     dE             d eps       ncg     rms          rms(c)
DAV:   1    -0.114062335635E+03    0.66535E-03   -0.45612E-02    76   0.118E+00    0.546E-02
RMM:   2    -0.114062368948E+03   -0.33312E-04   -0.66880E-04    70   0.135E-01    0.301E-02
RMM:   3    -0.114062385961E+03   -0.17014E-04   -0.12044E-04    67   0.567E-02    0.151E-02
RMM:   4    -0.114062392786E+03   -0.68242E-05   -0.20967E-05    48   0.251E-02
  58 F= -.11436386E+03 E0= -.11436386E+03  d E =0.597329E-03
       N       E                     dE             d eps       ncg     rms          rms(c)
DAV:   1    -0.114064157425E+03   -0.17715E-02   -0.12012E-01    76   0.192E+00    0.889E-02
RMM:   2    -0.114064241178E+03   -0.83753E-04   -0.17111E-03    70   0.219E-01    0.481E-02
RMM:   3    -0.114064278947E+03   -0.37769E-04   -0.30847E-04    72   0.922E-02    0.224E-02
RMM:   4    -0.114064288364E+03   -0.94174E-05   -0.55225E-05    64   0.410E-02
  59 F= -.11436570E+03 E0= -.11436570E+03  d E =-.184275E-02
       N       E                     dE             d eps       ncg     rms          rms(c)
DAV:   1    -0.114070961851E+03   -0.66829E-02   -0.60225E+00    70   0.136E+01    0.612E-01
RMM:   2    -0.114075985027E+03   -0.50232E-02   -0.86038E-02    70   0.156E+00    0.341E-01
RMM:   3    -0.114077168040E+03   -0.11830E-02   -0.15409E-02    72   0.652E-01    0.159E-01
RMM:   4    -0.114077540799E+03   -0.37276E-03   -0.27436E-03    72   0.288E-01    0.503E-02
RMM:   5    -0.114077609288E+03   -0.68489E-04   -0.58491E-04    78   0.130E-01    0.224E-02
RMM:   6    -0.114077626177E+03   -0.16890E-04   -0.10606E-04    65   0.559E-02    0.114E-02
RMM:   7    -0.114077640751E+03   -0.14574E-04   -0.23440E-05    48   0.268E-02    0.367E-03
RMM:   8    -0.114077651339E+03   -0.10588E-04   -0.64525E-06    45   0.131E-02    0.199E-03
RMM:   9    -0.114077660626E+03   -0.92865E-05   -0.24788E-06    44   0.780E-03
  60 F= -.11437869E+03 E0= -.11437869E+03  d E =-.129856E-01
       N       E                     dE             d eps       ncg     rms          rms(c)
DAV:   1    -0.114072682402E+03    0.49689E-02   -0.69324E-01    70   0.462E+00    0.216E-01
RMM:   2    -0.114073214402E+03   -0.53200E-03   -0.99969E-03    70   0.531E-01    0.116E-01
RMM:   3    -0.114073405856E+03   -0.19145E-03   -0.17812E-03    72   0.222E-01    0.575E-02
RMM:   4    -0.114073462994E+03   -0.57138E-04   -0.32254E-04    72   0.986E-02    0.185E-02
RMM:   5    -0.114073472435E+03   -0.94408E-05   -0.63417E-05    61   0.445E-02
  61 F= -.11437462E+03 E0= -.11437462E+03  d E =0.406423E-02
       N       E                     dE             d eps       ncg     rms          rms(c)
DAV:   1    -0.114076768971E+03   -0.33060E-02   -0.44694E-01    70   0.370E+00    0.171E-01
RMM:   2    -0.114077088904E+03   -0.31993E-03   -0.63032E-03    70   0.421E-01    0.930E-02
RMM:   3    -0.114077218334E+03   -0.12943E-03   -0.11178E-03    72   0.176E-01    0.431E-02
RMM:   4    -0.114077251992E+03   -0.33658E-04   -0.19851E-04    73   0.770E-02    0.142E-02
RMM:   5    -0.114077255622E+03   -0.36298E-05   -0.36287E-05    53   0.341E-02
  62 F= -.11437829E+03 E0= -.11437829E+03  d E =-.367023E-02
       N       E                     dE             d eps       ncg     rms          rms(c)
DAV:   1    -0.114083617148E+03   -0.63652E-02   -0.27739E+00    70   0.922E+00    0.413E-01
RMM:   2    -0.114085841018E+03   -0.22239E-02   -0.39771E-02    70   0.106E+00    0.231E-01
RMM:   3    -0.114086477724E+03   -0.63671E-03   -0.71858E-03    72   0.444E-01    0.107E-01
RMM:   4    -0.114086667334E+03   -0.18961E-03   -0.12912E-03    73   0.197E-01    0.350E-02
RMM:   5    -0.114086697939E+03   -0.30605E-04   -0.26255E-04    77   0.883E-02    0.149E-02
RMM:   6    -0.114086706463E+03   -0.85238E-05   -0.48856E-05    56   0.384E-02
  63 F= -.11438745E+03 E0= -.11438745E+03  d E =-.915804E-02
       N       E                     dE             d eps       ncg     rms          rms(c)
DAV:   1    -0.114085967375E+03    0.73056E-03   -0.30910E-02    76   0.970E-01    0.443E-02
RMM:   2    -0.114085992719E+03   -0.25344E-04   -0.45127E-04    70   0.111E-01    0.245E-02
RMM:   3    -0.114086007246E+03   -0.14527E-04   -0.81353E-05    62   0.462E-02    0.120E-02
RMM:   4    -0.114086014269E+03   -0.70223E-05   -0.13298E-05    47   0.201E-02
  64 F= -.11438678E+03 E0= -.11438678E+03  d E =0.670493E-03
       N       E                     dE             d eps       ncg     rms          rms(c)
DAV:   1    -0.114087823963E+03   -0.18167E-02   -0.10292E-01    76   0.177E+00    0.803E-02
RMM:   2    -0.114087898557E+03   -0.74594E-04   -0.14800E-03    70   0.203E-01    0.440E-02
RMM:   3    -0.114087930939E+03   -0.32382E-04   -0.26904E-04    72   0.856E-02    0.205E-02
RMM:   4    -0.114087939621E+03   -0.86819E-05   -0.47400E-05    60   0.379E-02
  65 F= -.11438865E+03 E0= -.11438865E+03  d E =-.186439E-02
       N       E                     dE             d eps       ncg     rms          rms(c)
DAV:   1    -0.114090118376E+03   -0.21874E-02   -0.13037E-01    70   0.200E+00    0.887E-02
RMM:   2    -0.114090215451E+03   -0.97075E-04   -0.18942E-03    70   0.231E-01    0.500E-02
RMM:   3    -0.114090256002E+03   -0.40551E-04   -0.34243E-04    72   0.967E-02    0.242E-02
RMM:   4    -0.114090266665E+03   -0.10663E-04   -0.62418E-05    64   0.426E-02    0.759E-03
RMM:   5    -0.114090268484E+03   -0.18194E-05   -0.10235E-05    46   0.183E-02
  66 F= -.11439090E+03 E0= -.11439090E+03  d E =-.225493E-02
       N       E                     dE             d eps       ncg     rms          rms(c)
DAV:   1    -0.114098736979E+03   -0.84703E-02   -0.88068E+00    70   0.164E+01    0.730E-01
RMM:   2    -0.114106275384E+03   -0.75384E-02   -0.12607E-01    70   0.189E+00    0.409E-01
RMM:   3    -0.114107877695E+03   -0.16023E-02   -0.22536E-02    72   0.788E-01    0.190E-01
RMM:   4    -0.114108371300E+03   -0.49360E-03   -0.40328E-03    73   0.349E-01    0.597E-02
RMM:   5    -0.114108466412E+03   -0.95112E-04   -0.80566E-04    77   0.155E-01    0.261E-02
RMM:   6    -0.114108490359E+03   -0.23947E-04   -0.15719E-04    69   0.673E-02    0.127E-02
RMM:   7    -0.114108508088E+03   -0.17728E-04   -0.31822E-05    50   0.311E-02    0.471E-03
RMM:   8    -0.114108522794E+03   -0.14706E-04   -0.95608E-06    46   0.156E-02    0.248E-03
RMM:   9    -0.114108535719E+03   -0.12925E-04   -0.29745E-06    44   0.851E-03    0.862E-04
RMM:  10    -0.114108540964E+03   -0.52453E-05   -0.99585E-07    37   0.525E-03
  67 F= -.11440854E+03 E0= -.11440854E+03  d E =-.176384E-01
       N       E                     dE             d eps       ncg     rms          rms(c)
DAV:   1    -0.114101280684E+03    0.72550E-02   -0.10541E+00    70   0.569E+00    0.265E-01
RMM:   2    -0.114102096502E+03   -0.81582E-03   -0.15227E-02    70   0.657E-01    0.143E-01
RMM:   3    -0.114102358776E+03   -0.26227E-03   -0.27006E-03    72   0.274E-01    0.701E-02
RMM:   4    -0.114102439826E+03   -0.81050E-04   -0.49078E-04    72   0.122E-01    0.221E-02
RMM:   5    -0.114102451589E+03   -0.11763E-04   -0.10254E-04    68   0.551E-02    0.101E-02
RMM:   6    -0.114102454014E+03   -0.24255E-05   -0.18380E-05    49   0.241E-02
  68 F= -.11440268E+03 E0= -.11440268E+03  d E =0.585851E-02
       N       E                     dE             d eps       ncg     rms          rms(c)
DAV:   1    -0.114106575502E+03   -0.41239E-02   -0.58026E-01    70   0.421E+00    0.191E-01
RMM:   2    -0.114107013081E+03   -0.43758E-03   -0.82472E-03    70   0.482E-01    0.105E-01
RMM:   3    -0.114107170341E+03   -0.15726E-03   -0.14706E-03    72   0.202E-01    0.489E-02
RMM:   4    -0.114107218476E+03   -0.48135E-04   -0.26075E-04    72   0.892E-02    0.156E-02
RMM:   5    -0.114107224068E+03   -0.55914E-05   -0.52239E-05    58   0.404E-02
  69 F= -.11440728E+03 E0= -.11440728E+03  d E =-.459964E-02
       N       E                     dE             d eps       ncg     rms          rms(c)
DAV:   1    -0.114112171367E+03   -0.49529E-02   -0.89167E-01    70   0.522E+00    0.231E-01
RMM:   2    -0.114112874283E+03   -0.70292E-03   -0.12890E-02    70   0.602E-01    0.130E-01
RMM:   3    -0.114113099280E+03   -0.22500E-03   -0.23381E-03    72   0.253E-01    0.606E-02
RMM:   4    -0.114113167070E+03   -0.67791E-04   -0.42058E-04    73   0.112E-01    0.196E-02
RMM:   5    -0.114113177257E+03   -0.10187E-04   -0.83470E-05    66   0.504E-02    0.851E-03
RMM:   6    -0.114113180307E+03   -0.30497E-05   -0.15783E-05    48   0.226E-02
  70 F= -.11441302E+03 E0= -.11441302E+03  d E =-.573847E-02
       N       E                     dE             d eps       ncg     rms          rms(c)
DAV:   1    -0.114117777826E+03   -0.46006E-02   -0.80603E-01    70   0.496E+00    0.220E-01
RMM:   2    -0.114118413751E+03   -0.63592E-03   -0.11639E-02    70   0.571E-01    0.123E-01
RMM:   3    -0.114118615018E+03   -0.20127E-03   -0.21060E-03    72   0.240E-01    0.576E-02
RMM:   4    -0.114118675278E+03   -0.60261E-04   -0.37409E-04    73   0.106E-01    0.190E-02
RMM:   5    -0.114118685658E+03   -0.10379E-04   -0.72550E-05    64   0.471E-02    0.797E-03
RMM:   6    -0.114118689276E+03   -0.36186E-05   -0.14071E-05    47   0.211E-02
  71 F= -.11441832E+03 E0= -.11441832E+03  d E =-.530414E-02
       N       E                     dE             d eps       ncg     rms          rms(c)
DAV:   1    -0.114125521316E+03   -0.68357E-02   -0.22633E+00    70   0.831E+00    0.371E-01
RMM:   2    -0.114127349553E+03   -0.18282E-02   -0.32418E-02    70   0.956E-01    0.207E-01
RMM:   3    -0.114127841258E+03   -0.49171E-03   -0.57890E-03    72   0.400E-01    0.963E-02
RMM:   4    -0.114127986821E+03   -0.14556E-03   -0.10273E-03    72   0.176E-01    0.305E-02
RMM:   5    -0.114128014806E+03   -0.27985E-04   -0.22013E-04    77   0.798E-02    0.133E-02
RMM:   6    -0.114128022939E+03   -0.81335E-05   -0.38244E-05    55   0.337E-02
  72 F= -.11442728E+03 E0= -.11442728E+03  d E =-.895764E-02
       N       E                     dE             d eps       ncg     rms          rms(c)
DAV:   1    -0.114124346091E+03    0.36687E-02   -0.31882E-01    70   0.313E+00    0.146E-01
RMM:   2    -0.114124587589E+03   -0.24150E-03   -0.45459E-03    70   0.359E-01    0.787E-02
RMM:   3    -0.114124675039E+03   -0.87451E-04   -0.78173E-04    71   0.149E-01    0.375E-02
RMM:   4    -0.114124711049E+03   -0.36009E-04   -0.16025E-04    72   0.680E-02    0.120E-02
RMM:   5    -0.114124717001E+03   -0.59518E-05   -0.26636E-05    50   0.301E-02
  73 F= -.11442412E+03 E0= -.11442412E+03  d E =0.316491E-02
       N       E                     dE             d eps       ncg     rms          rms(c)
DAV:   1    -0.114125482125E+03   -0.77108E-03   -0.13978E-02    92   0.651E-01    0.299E-02
RMM:   2    -0.114125491001E+03   -0.88759E-05   -0.19029E-04    68   0.724E-02    0.161E-02
RMM:   3    -0.114125497033E+03   -0.60318E-05   -0.32656E-05    50   0.296E-02
  74 F= -.11442487E+03 E0= -.11442487E+03  d E =-.749792E-03
       N       E                     dE             d eps       ncg     rms          rms(c)
DAV:   1    -0.114086483649E+03    0.39007E-01   -0.72554E+01    70   0.468E+01    0.223E+00
RMM:   2    -0.114162729423E+03   -0.76246E-01   -0.11351E+00    70   0.566E+00    0.116E+00
RMM:   3    -0.114173661814E+03   -0.10932E-01   -0.19257E-01    72   0.232E+00    0.666E-01
RMM:   4    -0.114175198178E+03   -0.15364E-02   -0.35566E-02    71   0.105E+00    0.175E-01
RMM:   5    -0.114176068993E+03   -0.87081E-03   -0.75447E-03    79   0.470E-01    0.986E-02
RMM:   6    -0.114176243521E+03   -0.17453E-03   -0.13711E-03    77   0.199E-01    0.519E-02
RMM:   7    -0.114176349430E+03   -0.10591E-03   -0.35843E-04    77   0.941E-02    0.200E-02
RMM:   8    -0.114176397227E+03   -0.47798E-04   -0.51178E-05    53   0.339E-02    0.109E-02
RMM:   9    -0.114176462682E+03   -0.65455E-04   -0.13249E-05    45   0.169E-02    0.244E-03
RMM:  10    -0.114176482641E+03   -0.19959E-04   -0.34914E-06    45   0.881E-03    0.154E-03
RMM:  11    -0.114176550642E+03   -0.68001E-04   -0.64790E-06    45   0.836E-03    0.139E-03
RMM:  12    -0.114176562538E+03   -0.11896E-04   -0.17921E-06    36   0.483E-03    0.950E-04
RMM:  13    -0.114176583640E+03   -0.21102E-04   -0.22895E-06    37   0.488E-03    0.110E-03
RMM:  14    -0.114176589793E+03   -0.61525E-05   -0.75695E-07    29   0.366E-03
  75 F= -.11447361E+03 E0= -.11447361E+03  d E =-.487393E-01
       N       E                     dE             d eps       ncg     rms          rms(c)
DAV:   1    -0.114154434552E+03    0.22149E-01   -0.65325E+00    70   0.141E+01    0.673E-01
RMM:   2    -0.114160457481E+03   -0.60229E-02   -0.97271E-02    70   0.166E+00    0.351E-01
RMM:   3    -0.114161771738E+03   -0.13143E-02   -0.18027E-02    73   0.690E-01    0.190E-01
RMM:   4    -0.114162075355E+03   -0.30362E-03   -0.26317E-03    70   0.299E-01    0.551E-02
RMM:   5    -0.114162149613E+03   -0.74259E-04   -0.65413E-04    79   0.138E-01    0.351E-02
RMM:   6    -0.114162165897E+03   -0.16284E-04   -0.11261E-04    65   0.582E-02    0.181E-02
RMM:   7    -0.114162178932E+03   -0.13035E-04   -0.24561E-05    48   0.282E-02    0.376E-03
RMM:   8    -0.114162188168E+03   -0.92361E-05   -0.72788E-06    46   0.145E-02
  76 F= -.11445994E+03 E0= -.11445994E+03  d E =0.136630E-01
       N       E                     dE             d eps       ncg     rms          rms(c)
DAV:   1    -0.114168614932E+03   -0.64360E-02   -0.24994E+00    70   0.872E+00    0.384E-01
RMM:   2    -0.114170677808E+03   -0.20629E-02   -0.35745E-02    70   0.100E+00    0.215E-01
RMM:   3    -0.114171246075E+03   -0.56827E-03   -0.63646E-03    72   0.419E-01    0.992E-02
RMM:   4    -0.114171410239E+03   -0.16416E-03   -0.11226E-03    72   0.185E-01    0.311E-02
RMM:   5    -0.114171434773E+03   -0.24534E-04   -0.23231E-04    77   0.831E-02    0.141E-02
RMM:   6    -0.114171439259E+03   -0.44868E-05   -0.40260E-05    54   0.351E-02
  77 F= -.11446873E+03 E0= -.11446873E+03  d E =-.878901E-02
       N       E                     dE             d eps       ncg     rms          rms(c)
DAV:   1    -0.114177191847E+03   -0.57571E-02   -0.18377E+00    70   0.746E+00    0.324E-01
RMM:   2    -0.114178695779E+03   -0.15039E-02   -0.26597E-02    70   0.861E-01    0.183E-01
RMM:   3    -0.114179139767E+03   -0.44399E-03   -0.48060E-03    72   0.361E-01    0.848E-02
RMM:   4    -0.114179258984E+03   -0.11922E-03   -0.83585E-04    72   0.159E-01    0.274E-02
RMM:   5    -0.114179280788E+03   -0.21803E-04   -0.17723E-04    76   0.719E-02    0.119E-02
RMM:   6    -0.114179287280E+03   -0.64920E-05   -0.29737E-05    50   0.304E-02
  78 F= -.11447616E+03 E0= -.11447616E+03  d E =-.743218E-02
       N       E                     dE             d eps       ncg     rms          rms(c)
DAV:   1    -0.114178767855E+03    0.51293E-03   -0.17175E-02    84   0.716E-01    0.321E-02
RMM:   2    -0.114178783703E+03   -0.15847E-04   -0.30189E-04    71   0.866E-02    0.187E-02
RMM:   3    -0.114178790880E+03   -0.71771E-05   -0.43438E-05    53   0.353E-02
  79 F= -.11447570E+03 E0= -.11447570E+03  d E =0.465236E-03
       N       E                     dE             d eps       ncg     rms          rms(c)
DAV:   1    -0.114180246238E+03   -0.14625E-02   -0.63426E-02    76   0.138E+00    0.594E-02
RMM:   2    -0.114180298080E+03   -0.51842E-04   -0.93708E-04    70   0.159E-01    0.328E-02
RMM:   3    -0.114180316698E+03   -0.18618E-04   -0.16882E-04    71   0.665E-02    0.155E-02
RMM:   4    -0.114180322244E+03   -0.55456E-05   -0.27814E-05    49   0.289E-02
  80 F= -.11447715E+03 E0= -.11447715E+03  d E =-.144994E-02
       N       E                     dE             d eps       ncg     rms          rms(c)
DAV:   1    -0.114182160189E+03   -0.18435E-02   -0.91550E-02    70   0.166E+00    0.722E-02
RMM:   2    -0.114182234027E+03   -0.73838E-04   -0.13429E-03    70   0.193E-01    0.409E-02
RMM:   3    -0.114182262317E+03   -0.28290E-04   -0.25262E-04    73   0.807E-02    0.201E-02
RMM:   4    -0.114182268465E+03   -0.61477E-05   -0.35221E-05    53   0.343E-02
  81 F= -.11447899E+03 E0= -.11447899E+03  d E =-.184297E-02
       N       E                     dE             d eps       ncg     rms          rms(c)
DAV:   1    -0.114190262178E+03   -0.79999E-02   -0.48273E+00    70   0.121E+01    0.518E-01
RMM:   2    -0.114194492682E+03   -0.42305E-02   -0.69700E-02    70   0.139E+00    0.295E-01
RMM:   3    -0.114195507073E+03   -0.10144E-02   -0.12923E-02    73   0.582E-01    0.138E-01
RMM:   4    -0.114195741069E+03   -0.23400E-03   -0.17880E-03    70   0.248E-01    0.402E-02
RMM:   5    -0.114195791058E+03   -0.49988E-04   -0.45668E-04    79   0.115E-01    0.236E-02
RMM:   6    -0.114195803478E+03   -0.12420E-04   -0.75184E-05    59   0.479E-02    0.112E-02
RMM:   7    -0.114195815448E+03   -0.11970E-04   -0.17655E-05    48   0.231E-02    0.323E-03
RMM:   8    -0.114195824494E+03   -0.90459E-05   -0.48561E-06    45   0.114E-02
  82 F= -.11449179E+03 E0= -.11449179E+03  d E =-.127942E-01
       N       E                     dE             d eps       ncg     rms          rms(c)
DAV:   1    -0.114191486113E+03    0.43293E-02   -0.41893E-01    70   0.357E+00    0.167E-01
RMM:   2    -0.114191823448E+03   -0.33734E-03   -0.60846E-03    70   0.416E-01    0.890E-02
RMM:   3    -0.114191935339E+03   -0.11189E-03   -0.10866E-03    72   0.172E-01    0.446E-02
RMM:   4    -0.114191965027E+03   -0.29688E-04   -0.17107E-04    70   0.757E-02    0.127E-02
RMM:   5    -0.114191971102E+03   -0.60746E-05   -0.40401E-05    55   0.347E-02
  83 F= -.11448816E+03 E0= -.11448816E+03  d E =0.362949E-02
       N       E                     dE             d eps       ncg     rms          rms(c)
DAV:   1    -0.114195037908E+03   -0.30729E-02   -0.29502E-01    70   0.298E+00    0.133E-01
RMM:   2    -0.114195269950E+03   -0.23204E-03   -0.42147E-03    70   0.343E-01    0.729E-02
RMM:   3    -0.114195351697E+03   -0.81747E-04   -0.75414E-04    72   0.142E-01    0.345E-02
RMM:   4    -0.114195370394E+03   -0.18697E-04   -0.11853E-04    70   0.613E-02    0.102E-02
RMM:   5    -0.114195372527E+03   -0.21333E-05   -0.22171E-05    49   0.275E-02
  84 F= -.11449136E+03 E0= -.11449136E+03  d E =-.320758E-02
       N       E                     dE             d eps       ncg     rms          rms(c)
DAV:   1    -0.114199664531E+03   -0.42941E-02   -0.68040E-01    70   0.452E+00    0.194E-01
RMM:   2    -0.114200220012E+03   -0.55548E-03   -0.10008E-02    70   0.526E-01    0.110E-01
RMM:   3    -0.114200418790E+03   -0.19878E-03   -0.18944E-03    73   0.221E-01    0.523E-02
RMM:   4    -0.114200457687E+03   -0.38897E-04   -0.26144E-04    70   0.945E-02    0.161E-02
RMM:   5    -0.114200464767E+03   -0.70801E-05   -0.64723E-05    63   0.442E-02
  85 F= -.11449615E+03 E0= -.11449615E+03  d E =-.479092E-02
       N       E                     dE             d eps       ncg     rms          rms(c)
DAV:   1    -0.114206700276E+03   -0.62426E-02   -0.20317E+00    70   0.781E+00    0.333E-01
RMM:   2    -0.114208429526E+03   -0.17292E-02   -0.29624E-02    70   0.907E-01    0.190E-01
RMM:   3    -0.114208938439E+03   -0.50891E-03   -0.55447E-03    73   0.380E-01    0.897E-02
RMM:   4    -0.114209049504E+03   -0.11106E-03   -0.76741E-04    70   0.162E-01    0.267E-02
RMM:   5    -0.114209072084E+03   -0.22581E-04   -0.19636E-04    77   0.756E-02    0.157E-02
RMM:   6    -0.114209079142E+03   -0.70580E-05   -0.32999E-05    52   0.319E-02
  86 F= -.11450424E+03 E0= -.11450424E+03  d E =-.808283E-02
       N       E                     dE             d eps       ncg     rms          rms(c)
DAV:   1    -0.114207297045E+03    0.17750E-02   -0.90715E-02    76   0.164E+00    0.709E-02
RMM:   2    -0.114207374025E+03   -0.76980E-04   -0.13897E-03    70   0.193E-01    0.404E-02
RMM:   3    -0.114207407186E+03   -0.33161E-04   -0.25426E-04    72   0.808E-02    0.202E-02
RMM:   4    -0.114207419269E+03   -0.12083E-04   -0.43920E-05    57   0.363E-02    0.728E-03
RMM:   5    -0.114207422951E+03   -0.36818E-05   -0.78863E-06    45   0.157E-02
  87 F= -.11450269E+03 E0= -.11450269E+03  d E =0.154929E-02
       N       E                     dE             d eps       ncg     rms          rms(c)
DAV:   1    -0.114210418793E+03   -0.29995E-02   -0.30793E-01    70   0.303E+00    0.129E-01
RMM:   2    -0.114210665098E+03   -0.24630E-03   -0.45328E-03    70   0.351E-01    0.732E-02
RMM:   3    -0.114210761153E+03   -0.96055E-04   -0.85563E-04    73   0.147E-01    0.353E-02
RMM:   4    -0.114210779103E+03   -0.17950E-04   -0.11458E-04    69   0.623E-02    0.114E-02
RMM:   5    -0.114210782093E+03   -0.29902E-05   -0.25295E-05    50   0.287E-02
  88 F= -.11450584E+03 E0= -.11450584E+03  d E =-.314756E-02
       N       E                     dE             d eps       ncg     rms          rms(c)
DAV:   1    -0.114211982326E+03   -0.12032E-02   -0.39331E-02    70   0.109E+00    0.485E-02
RMM:   2    -0.114212014394E+03   -0.32068E-04   -0.59371E-04    70   0.130E-01    0.272E-02
RMM:   3    -0.114212025970E+03   -0.11576E-04   -0.10865E-04    68   0.545E-02    0.137E-02
RMM:   4    -0.114212028927E+03   -0.29569E-05   -0.17976E-05    48   0.242E-02
  89 F= -.11450700E+03 E0= -.11450700E+03  d E =-.116758E-02
       N       E                     dE             d eps       ncg     rms          rms(c)
DAV:   1    -0.114215744024E+03   -0.37181E-02   -0.50248E-01    70   0.388E+00    0.165E-01
RMM:   2    -0.114216154690E+03   -0.41067E-03   -0.73756E-03    70   0.451E-01    0.940E-02
RMM:   3    -0.114216306046E+03   -0.15136E-03   -0.13812E-03    73   0.189E-01    0.454E-02
RMM:   4    -0.114216335085E+03   -0.29039E-04   -0.18789E-04    70   0.801E-02    0.135E-02
RMM:   5    -0.114216340327E+03   -0.52424E-05   -0.43623E-05    55   0.370E-02
  90 F= -.11451103E+03 E0= -.11451103E+03  d E =-.403124E-02
       N       E                     dE             d eps       ncg     rms          rms(c)
DAV:   1    -0.114215799012E+03    0.53607E-03   -0.99238E-03    76   0.555E-01    0.323E-02
RMM:   2    -0.114215806428E+03   -0.74156E-05   -0.14971E-04    68   0.659E-02    0.157E-02
RMM:   3    -0.114215809477E+03   -0.30495E-05   -0.22473E-05    50   0.261E-02
  91 F= -.11451054E+03 E0= -.11451054E+03  d E =0.495450E-03
       N       E                     dE             d eps       ncg     rms          rms(c)
DAV:   1    -0.114026182002E+03    0.18962E+00   -0.16329E+02    70   0.694E+01    0.390E+00
RMM:   2    -0.114252295656E+03   -0.22611E+00   -0.30731E+00    70   0.921E+00    0.170E+00
RMM:   3    -0.114285312579E+03   -0.33017E-01   -0.51603E-01    73   0.372E+00    0.125E+00
RMM:   4    -0.114282118877E+03    0.31937E-02   -0.92528E-02    71   0.171E+00    0.346E-01
RMM:   5    -0.114283658774E+03   -0.15399E-02   -0.17246E-02    75   0.719E-01    0.208E-01
RMM:   6    -0.114284181458E+03   -0.52268E-03   -0.39891E-03    82   0.332E-01    0.125E-01
RMM:   7    -0.114284474172E+03   -0.29271E-03   -0.10228E-03    71   0.163E-01    0.215E-02
RMM:   8    -0.114284557973E+03   -0.83800E-04   -0.23086E-04    73   0.714E-02    0.225E-02
RMM:   9    -0.114284694407E+03   -0.13643E-03   -0.54322E-05    59   0.318E-02    0.711E-03
RMM:  10    -0.114284743776E+03   -0.49369E-04   -0.13779E-05    45   0.154E-02    0.296E-03
RMM:  11    -0.114284815264E+03   -0.71488E-04   -0.73901E-06    45   0.100E-02    0.380E-03
RMM:  12    -0.114284868635E+03   -0.53371E-04   -0.50465E-06    42   0.723E-03    0.176E-03
RMM:  13    -0.114284912000E+03   -0.43365E-04   -0.46207E-06    40   0.624E-03    0.694E-04
RMM:  14    -0.114284929144E+03   -0.17144E-04   -0.26018E-06    32   0.480E-03    0.459E-04
RMM:  15    -0.114284936712E+03   -0.75681E-05   -0.80404E-07    29   0.379E-03
  92 F= -.11457390E+03 E0= -.11457390E+03  d E =-.633631E-01
       N       E                     dE             d eps       ncg     rms          rms(c)
DAV:   1    -0.113926739521E+03    0.35819E+00   -0.14881E+02    70   0.665E+01    0.507E+00
RMM:   2    -0.114176280054E+03   -0.24954E+00   -0.32270E+00    70   0.942E+00    0.164E+00
RMM:   3    -0.114219245598E+03   -0.42966E-01   -0.58580E-01    73   0.387E+00    0.148E+00
RMM:   4    -0.114216059213E+03    0.31864E-02   -0.99921E-02    71   0.177E+00    0.457E-01
RMM:   5    -0.114217636729E+03   -0.15775E-02   -0.22215E-02    74   0.778E-01    0.268E-01
RMM:   6    -0.114218249180E+03   -0.61245E-03   -0.48864E-03    79   0.364E-01    0.150E-01
RMM:   7    -0.114218515082E+03   -0.26590E-03   -0.12806E-03    71   0.180E-01    0.305E-02
RMM:   8    -0.114218628881E+03   -0.11380E-03   -0.32063E-04    76   0.876E-02    0.180E-02
RMM:   9    -0.114218774854E+03   -0.14597E-03   -0.78699E-05    56   0.382E-02    0.892E-03
RMM:  10    -0.114218833727E+03   -0.58873E-04   -0.19439E-05    48   0.193E-02    0.653E-03
RMM:  11    -0.114218893205E+03   -0.59478E-04   -0.59155E-06    45   0.101E-02    0.365E-03
RMM:  12    -0.114218951947E+03   -0.58741E-04   -0.50932E-06    45   0.781E-03    0.333E-03
RMM:  13    -0.114218987144E+03   -0.35198E-04   -0.32314E-06    38   0.575E-03    0.266E-03
RMM:  14    -0.114219008609E+03   -0.21464E-04   -0.22347E-06    36   0.487E-03    0.120E-03
RMM:  15    -0.114219016519E+03   -0.79100E-05   -0.10887E-06    31   0.381E-03
  93 F= -.11451354E+03 E0= -.11451354E+03  d E =0.603597E-01
       N       E                     dE             d eps       ncg     rms          rms(c)
DAV:   1    -0.114221142900E+03   -0.21343E-02   -0.95776E-02    76   0.167E+00    0.681E-02
RMM:   2    -0.114221226244E+03   -0.83344E-04   -0.14288E-03    70   0.197E-01    0.391E-02
RMM:   3    -0.114221256184E+03   -0.29940E-04   -0.25752E-04    72   0.824E-02    0.190E-02
RMM:   4    -0.114221263558E+03   -0.73739E-05   -0.41912E-05    56   0.359E-02
  94 F= -.11451565E+03 E0= -.11451565E+03  d E =-.210320E-02
       N       E                     dE             d eps       ncg     rms          rms(c)
DAV:   1    -0.114223403839E+03   -0.21477E-02   -0.99659E-02    76   0.170E+00    0.683E-02
RMM:   2    -0.114223492702E+03   -0.88863E-04   -0.15154E-03    70   0.203E-01    0.404E-02
RMM:   3    -0.114223525050E+03   -0.32347E-04   -0.28124E-04    73   0.849E-02    0.201E-02
RMM:   4    -0.114223531431E+03   -0.63812E-05   -0.39788E-05    57   0.363E-02
  95 F= -.11451777E+03 E0= -.11451777E+03  d E =-.212128E-02
       N       E                     dE             d eps       ncg     rms          rms(c)
DAV:   1    -0.114214145141E+03    0.93799E-02   -0.38070E+01    70   0.332E+01    0.143E+00
RMM:   2    -0.114257041913E+03   -0.42897E-01   -0.59753E-01    70   0.403E+00    0.779E-01
RMM:   3    -0.114263312229E+03   -0.62703E-02   -0.10365E-01    72   0.166E+00    0.445E-01
RMM:   4    -0.114263899515E+03   -0.58729E-03   -0.18105E-02    71   0.749E-01    0.112E-01
RMM:   5    -0.114264339441E+03   -0.43993E-03   -0.37777E-03    75   0.314E-01    0.751E-02
RMM:   6    -0.114264434940E+03   -0.95499E-04   -0.70427E-04    77   0.144E-01    0.396E-02
RMM:   7    -0.114264501771E+03   -0.66831E-04   -0.15824E-04    67   0.689E-02    0.101E-02
RMM:   8    -0.114264533296E+03   -0.31525E-04   -0.56617E-05    55   0.352E-02    0.124E-02
RMM:   9    -0.114264574154E+03   -0.40858E-04   -0.81807E-06    45   0.134E-02    0.332E-03
RMM:  10    -0.114264586191E+03   -0.12037E-04   -0.26091E-06    45   0.762E-03    0.193E-03
RMM:  11    -0.114264633230E+03   -0.47040E-04   -0.57100E-06    45   0.766E-03    0.526E-03
RMM:  12    -0.114264640678E+03   -0.74475E-05   -0.12590E-06    30   0.425E-03
  96 F= -.11455579E+03 E0= -.11455579E+03  d E =-.380225E-01
       N       E                     dE             d eps       ncg     rms          rms(c)
DAV:   1    -0.114260457416E+03    0.41758E-02   -0.36154E-01    70   0.324E+00    0.133E-01
RMM:   2    -0.114260776547E+03   -0.31913E-03   -0.54134E-03    70   0.384E-01    0.757E-02
RMM:   3    -0.114260883331E+03   -0.10678E-03   -0.97056E-04    72   0.161E-01    0.375E-02
RMM:   4    -0.114260913117E+03   -0.29786E-04   -0.15444E-04    71   0.701E-02    0.107E-02
RMM:   5    -0.114260918221E+03   -0.51034E-05   -0.33726E-05    52   0.300E-02
  97 F= -.11455239E+03 E0= -.11455239E+03  d E =0.340370E-02
       N       E                     dE             d eps       ncg     rms          rms(c)
DAV:   1    -0.114263931789E+03   -0.30187E-02   -0.29186E-01    76   0.291E+00    0.118E-01
RMM:   2    -0.114264180360E+03   -0.24857E-03   -0.42939E-03    70   0.340E-01    0.676E-02
RMM:   3    -0.114264269540E+03   -0.89181E-04   -0.76284E-04    72   0.142E-01    0.324E-02
RMM:   4    -0.114264291655E+03   -0.22114E-04   -0.12254E-04    70   0.612E-02    0.940E-03
RMM:   5    -0.114264293567E+03   -0.19120E-05   -0.19440E-05    48   0.257E-02
  98 F= -.11455547E+03 E0= -.11455547E+03  d E =-.308889E-02
       N       E                     dE             d eps       ncg     rms          rms(c)
DAV:   1    -0.114269076671E+03   -0.47850E-02   -0.97754E-01    70   0.532E+00    0.214E-01
RMM:   2    -0.114269984699E+03   -0.90803E-03   -0.14643E-02    70   0.629E-01    0.125E-01
RMM:   3    -0.114270226789E+03   -0.24209E-03   -0.26355E-03    72   0.264E-01    0.594E-02
RMM:   4    -0.114270290389E+03   -0.63600E-04   -0.43092E-04    71   0.115E-01    0.174E-02
RMM:   5    -0.114270300332E+03   -0.99426E-05   -0.86583E-05    66   0.520E-02
  99 F= -.11456095E+03 E0= -.11456095E+03  d E =-.547934E-02
       N       E                     dE             d eps       ncg     rms          rms(c)
DAV:   1    -0.114267513055E+03    0.27773E-02   -0.17929E-01    70   0.227E+00    0.936E-02
RMM:   2    -0.114267665069E+03   -0.15201E-03   -0.26440E-03    70   0.266E-01    0.530E-02
RMM:   3    -0.114267723585E+03   -0.58515E-04   -0.46298E-04    72   0.110E-01    0.268E-02
RMM:   4    -0.114267741751E+03   -0.18166E-04   -0.76037E-05    66   0.478E-02    0.818E-03
RMM:   5    -0.114267744761E+03   -0.30104E-05   -0.11441E-05    47   0.198E-02
 100 F= -.11455862E+03 E0= -.11455862E+03  d E =0.233161E-02
       N       E                     dE             d eps       ncg     rms          rms(c)
DAV:   1    -0.114269981186E+03   -0.22394E-02   -0.16281E-01    70   0.217E+00    0.879E-02
RMM:   2    -0.114270117537E+03   -0.13635E-03   -0.24033E-03    70   0.254E-01    0.506E-02
RMM:   3    -0.114270169802E+03   -0.52265E-04   -0.42680E-04    72   0.106E-01    0.246E-02
RMM:   4    -0.114270181959E+03   -0.12157E-04   -0.69129E-05    66   0.458E-02    0.724E-03
RMM:   5    -0.114270183149E+03   -0.11900E-05   -0.10897E-05    47   0.192E-02
 101 F= -.11456084E+03 E0= -.11456084E+03  d E =-.222220E-02
       N       E                     dE             d eps       ncg     rms          rms(c)
DAV:   1    -0.114276853467E+03   -0.66715E-02   -0.40655E+00    70   0.108E+01    0.439E-01
RMM:   2    -0.114280871670E+03   -0.40182E-02   -0.60637E-02    70   0.128E+00    0.254E-01
RMM:   3    -0.114281685003E+03   -0.81333E-03   -0.10827E-02    72   0.535E-01    0.122E-01
RMM:   4    -0.114281880709E+03   -0.19571E-03   -0.17926E-03    72   0.234E-01    0.349E-02
RMM:   5    -0.114281919092E+03   -0.38382E-04   -0.33184E-04    76   0.980E-02    0.209E-02
RMM:   6    -0.114281930656E+03   -0.11564E-04   -0.62804E-05    58   0.446E-02    0.598E-03
RMM:   7    -0.114281939112E+03   -0.84563E-05   -0.15762E-05    48   0.222E-02
 102 F= -.11457149E+03 E0= -.11457149E+03  d E =-.106491E-01
       N       E                     dE             d eps       ncg     rms          rms(c)
DAV:   1    -0.114266633202E+03    0.15297E-01   -0.35040E+00    70   0.101E+01    0.434E-01
RMM:   2    -0.114270184816E+03   -0.35516E-02   -0.53130E-02    70   0.120E+00    0.238E-01
RMM:   3    -0.114270941838E+03   -0.75702E-03   -0.95200E-03    72   0.500E-01    0.126E-01
RMM:   4    -0.114271116090E+03   -0.17425E-03   -0.15185E-03    71   0.219E-01    0.359E-02
RMM:   5    -0.114271157965E+03   -0.41875E-04   -0.35438E-04    76   0.941E-02    0.222E-02
RMM:   6    -0.114271163014E+03   -0.50491E-05   -0.54875E-05    58   0.415E-02
 103 F= -.11456174E+03 E0= -.11456174E+03  d E =0.975367E-02
       N       E                     dE             d eps       ncg     rms          rms(c)
DAV:   1    -0.114272137258E+03   -0.97929E-03   -0.22278E-02    89   0.785E-01    0.301E-02
RMM:   2    -0.114272159245E+03   -0.21987E-04   -0.32790E-04    70   0.921E-02    0.183E-02
RMM:   3    -0.114272169688E+03   -0.10443E-04   -0.57505E-05    55   0.378E-02    0.943E-03
RMM:   4    -0.114272174597E+03   -0.49090E-05   -0.82101E-06    45   0.159E-02
 104 F= -.11456266E+03 E0= -.11456266E+03  d E =-.921724E-03
       N       E                     dE             d eps       ncg     rms          rms(c)
DAV:   1    -0.114272860281E+03   -0.69059E-03   -0.11085E-02    76   0.556E-01    0.217E-02
RMM:   2    -0.114272870554E+03   -0.10272E-04   -0.17587E-04    67   0.677E-02    0.132E-02
RMM:   3    -0.114272875501E+03   -0.49475E-05   -0.31146E-05    51   0.281E-02
 105 F= -.11456330E+03 E0= -.11456330E+03  d E =-.642206E-03
       N       E                     dE             d eps       ncg     rms          rms(c)
DAV:   1    -0.114272792576E+03    0.77977E-04   -0.22500E-04    84   0.803E-02    0.414E-03
RMM:   2    -0.114272793145E+03   -0.56815E-06   -0.33445E-06    41   0.917E-03
 106 F= -.11456323E+03 E0= -.11456323E+03  d E =0.746404E-04
       N       E                     dE             d eps       ncg     rms          rms(c)
DAV:   1    -0.114274385503E+03   -0.15929E-02   -0.81299E-02    70   0.156E+00    0.655E-02
RMM:   2    -0.114274444257E+03   -0.58753E-04   -0.11535E-03    70   0.182E-01    0.372E-02
RMM:   3    -0.114274463698E+03   -0.19442E-04   -0.19200E-04    72   0.760E-02    0.171E-02
RMM:   4    -0.114274469345E+03   -0.56467E-05   -0.34582E-05    53   0.335E-02
 107 F= -.11456475E+03 E0= -.11456475E+03  d E =-.151618E-02
       N       E                     dE             d eps       ncg     rms          rms(c)
DAV:   1    -0.114275695043E+03   -0.12313E-02   -0.54205E-02    76   0.127E+00    0.517E-02
RMM:   2    -0.114275732339E+03   -0.37296E-04   -0.80865E-04    70   0.151E-01    0.312E-02
RMM:   3    -0.114275748528E+03   -0.16189E-04   -0.14342E-04    71   0.640E-02    0.145E-02
RMM:   4    -0.114275753146E+03   -0.46180E-05   -0.25435E-05    50   0.283E-02
 108 F= -.11456591E+03 E0= -.11456591E+03  d E =-.116160E-02
       N       E                     dE             d eps       ncg     rms          rms(c)
DAV:   1    -0.114279355118E+03   -0.36066E-02   -0.63943E-01    70   0.438E+00    0.183E-01
RMM:   2    -0.114279830784E+03   -0.47567E-03   -0.89083E-03    70   0.509E-01    0.106E-01
RMM:   3    -0.114279953929E+03   -0.12315E-03   -0.15073E-03    72   0.214E-01    0.464E-02
[...]
 170 F= -.11468185E+03 E0= -.11468185E+03  d E =-.136519E-03
       N       E                     dE             d eps       ncg     rms          rms(c)
DAV:   1    -0.114415250786E+03   -0.23809E-03   -0.17672E-01    70   0.231E+00    0.115E-01
RMM:   2    -0.114415328497E+03   -0.77711E-04   -0.24126E-03    71   0.253E-01    0.641E-02
RMM:   3    -0.114415377482E+03   -0.48985E-04   -0.40478E-04    71   0.104E-01    0.305E-02
RMM:   4    -0.114415399822E+03   -0.22340E-04   -0.83785E-05    65   0.473E-02    0.120E-02
RMM:   5    -0.114415402450E+03   -0.26277E-05   -0.14266E-05    47   0.206E-02
 171 F= -.11468215E+03 E0= -.11468215E+03  d E =-.303127E-03
       N       E                     dE             d eps       ncg     rms          rms(c)
DAV:   1    -0.114415589929E+03   -0.19011E-03   -0.35031E-02    70   0.103E+00    0.543E-02
RMM:   2    -0.114415597705E+03   -0.77760E-05   -0.53357E-04    71   0.118E-01    0.299E-02
RMM:   3    -0.114415605540E+03   -0.78346E-05   -0.82180E-05    61   0.488E-02
 172 F= -.11468231E+03 E0= -.11468231E+03  d E =-.156067E-03
       N       E                     dE             d eps       ncg     rms          rms(c)
DAV:   1    -0.114415803581E+03   -0.20588E-03   -0.29561E-02    70   0.952E-01    0.546E-02
RMM:   2    -0.114415806727E+03   -0.31458E-05   -0.41108E-04    70   0.109E-01    0.293E-02
RMM:   3    -0.114415818235E+03   -0.11509E-04   -0.75899E-05    60   0.453E-02    0.153E-02
RMM:   4    -0.114415823098E+03   -0.48627E-05   -0.15546E-05    48   0.210E-02
 173 F= -.11468248E+03 E0= -.11468248E+03  d E =-.177566E-03
       N       E                     dE             d eps       ncg     rms          rms(c)
DAV:   1    -0.114415934051E+03   -0.11582E-03   -0.64265E-03    76   0.435E-01    0.201E-02
RMM:   2    -0.114415938607E+03   -0.45559E-05   -0.11089E-04    63   0.515E-02    0.121E-02
RMM:   3    -0.114415941556E+03   -0.29490E-05   -0.17465E-05    48   0.212E-02
 174 F= -.11468257E+03 E0= -.11468257E+03  d E =-.915771E-04
       N       E                     dE             d eps       ncg     rms          rms(c)
DAV:   1    -0.114416268757E+03   -0.33015E-03   -0.79189E-02    70   0.155E+00    0.786E-02
RMM:   2    -0.114416301334E+03   -0.32577E-04   -0.10450E-03    70   0.173E-01    0.425E-02
RMM:   3    -0.114416329877E+03   -0.28543E-04   -0.19883E-04    69   0.718E-02    0.204E-02
RMM:   4    -0.114416338642E+03   -0.87657E-05   -0.36920E-05    54   0.321E-02
 175 F= -.11468288E+03 E0= -.11468288E+03  d E =-.303494E-03
       N       E                     dE             d eps       ncg     rms          rms(c)
DAV:   1    -0.114416582585E+03   -0.25271E-03   -0.24760E-02    70   0.854E-01    0.388E-02
RMM:   2    -0.114416596854E+03   -0.14268E-04   -0.36594E-04    70   0.986E-02    0.221E-02
RMM:   3    -0.114416607645E+03   -0.10792E-04   -0.72732E-05    60   0.411E-02    0.123E-02
RMM:   4    -0.114416611002E+03   -0.33570E-05   -0.96859E-06    44   0.171E-02
 176 F= -.11468309E+03 E0= -.11468309E+03  d E =-.208764E-03
       N       E                     dE             d eps       ncg     rms          rms(c)
DAV:   1    -0.114416837692E+03   -0.23005E-03   -0.21817E-02    70   0.792E-01    0.366E-02
RMM:   2    -0.114416849918E+03   -0.12227E-04   -0.35900E-04    69   0.941E-02    0.212E-02
RMM:   3    -0.114416856797E+03   -0.68784E-05   -0.69162E-05    59   0.397E-02
 177 F= -.11468327E+03 E0= -.11468327E+03  d E =-.181530E-03
       N       E                     dE             d eps       ncg     rms          rms(c)
DAV:   1    -0.114417339399E+03   -0.48948E-03   -0.10802E-01    70   0.177E+00    0.805E-02
RMM:   2    -0.114417413271E+03   -0.73872E-04   -0.15710E-03    70   0.204E-01    0.453E-02
RMM:   3    -0.114417454373E+03   -0.41102E-04   -0.31401E-04    74   0.861E-02    0.230E-02
RMM:   4    -0.114417464557E+03   -0.10184E-04   -0.41216E-05    57   0.366E-02    0.698E-03
RMM:   5    -0.114417466131E+03   -0.15741E-05   -0.87822E-06    45   0.162E-02
 178 F= -.11468373E+03 E0= -.11468373E+03  d E =-.465838E-03
       N       E                     dE             d eps       ncg     rms          rms(c)
DAV:   1    -0.114417673871E+03   -0.20931E-03   -0.13539E-02    70   0.600E-01    0.241E-02
RMM:   2    -0.114417686430E+03   -0.12558E-04   -0.23489E-04    67   0.749E-02    0.149E-02
RMM:   3    -0.114417692082E+03   -0.56525E-05   -0.46638E-05    53   0.321E-02
 179 F= -.11468390E+03 E0= -.11468390E+03  d E =-.163946E-03
       N       E                     dE             d eps       ncg     rms          rms(c)
DAV:   1    -0.114417960815E+03   -0.27439E-03   -0.21221E-02    70   0.769E-01    0.352E-02
RMM:   2    -0.114417978066E+03   -0.17251E-04   -0.34054E-04    69   0.942E-02    0.197E-02
RMM:   3    -0.114417985062E+03   -0.69953E-05   -0.62883E-05    57   0.394E-02
 180 F= -.11468411E+03 E0= -.11468411E+03  d E =-.216423E-03
       N       E                     dE             d eps       ncg     rms          rms(c)
DAV:   1    -0.114418590206E+03   -0.61214E-03   -0.17700E-01    70   0.216E+00    0.821E-02
RMM:   2    -0.114418761585E+03   -0.17138E-03   -0.27475E-03    70   0.259E-01    0.499E-02
RMM:   3    -0.114418822698E+03   -0.61113E-04   -0.50875E-04    73   0.110E-01    0.251E-02
RMM:   4    -0.114418836686E+03   -0.13989E-04   -0.82616E-05    62   0.472E-02    0.690E-03
RMM:   5    -0.114418838852E+03   -0.21652E-05   -0.13418E-05    47   0.201E-02
 181 F= -.11468473E+03 E0= -.11468473E+03  d E =-.619589E-03
       N       E                     dE             d eps       ncg     rms          rms(c)
DAV:   1    -0.114419085777E+03   -0.24909E-03   -0.19101E-02    70   0.690E-01    0.268E-02
RMM:   2    -0.114419104330E+03   -0.18553E-04   -0.32036E-04    66   0.871E-02    0.164E-02
RMM:   3    -0.114419110333E+03   -0.60035E-05   -0.57724E-05    56   0.367E-02
 182 F= -.11468492E+03 E0= -.11468492E+03  d E =-.188431E-03
       N       E                     dE             d eps       ncg     rms          rms(c)
DAV:   1    -0.114419158043E+03   -0.53713E-04   -0.22558E-03    76   0.247E-01    0.173E-02
RMM:   2    -0.114419156894E+03    0.11484E-05   -0.53111E-05    55   0.350E-02
 183 F= -.11468496E+03 E0= -.11468496E+03  d E =-.344426E-04
       N       E                     dE             d eps       ncg     rms          rms(c)
DAV:   1    -0.114419227061E+03   -0.69018E-04   -0.18482E-03    76   0.221E-01    0.131E-02
RMM:   2    -0.114419227747E+03   -0.68612E-06   -0.41629E-05    54   0.307E-02
 184 F= -.11468501E+03 E0= -.11468501E+03  d E =-.487777E-04
       N       E                     dE             d eps       ncg     rms          rms(c)
DAV:   1    -0.114419296163E+03   -0.69102E-04   -0.18653E-03    76   0.223E-01    0.120E-02
RMM:   2    -0.114419297438E+03   -0.12753E-05   -0.35668E-05    52   0.294E-02
 185 F= -.11468505E+03 E0= -.11468505E+03  d E =-.491184E-04
       N       E                     dE             d eps       ncg     rms          rms(c)
DAV:   1    -0.114419839492E+03   -0.54333E-03   -0.25149E-01    70   0.253E+00    0.956E-02
RMM:   2    -0.114420100331E+03   -0.26084E-03   -0.39614E-03    70   0.309E-01    0.586E-02
RMM:   3    -0.114420174440E+03   -0.74109E-04   -0.67203E-04    73   0.130E-01    0.287E-02
RMM:   4    -0.114420188861E+03   -0.14420E-04   -0.10255E-04    62   0.545E-02    0.760E-03
RMM:   5    -0.114420191920E+03   -0.30590E-05   -0.21012E-05    49   0.231E-02
 186 F= -.11468566E+03 E0= -.11468566E+03  d E =-.609554E-03
       N       E                     dE             d eps       ncg     rms          rms(c)
DAV:   1    -0.114420061147E+03    0.12771E-03   -0.74545E-03    76   0.448E-01    0.195E-02
RMM:   2    -0.114420067918E+03   -0.67709E-05   -0.11322E-04    60   0.523E-02    0.109E-02
RMM:   3    -0.114420070706E+03   -0.27872E-05   -0.17538E-05    48   0.212E-02
 187 F= -.11468558E+03 E0= -.11468558E+03  d E =0.802957E-04
       N       E                     dE             d eps       ncg     rms          rms(c)
DAV:   1    -0.114420184581E+03   -0.11666E-03   -0.39096E-03    76   0.313E-01    0.118E-02
RMM:   2    -0.114420188735E+03   -0.41545E-05   -0.61975E-05    55   0.381E-02
 188 F= -.11468567E+03 E0= -.11468567E+03  d E =-.848696E-04
       N       E                     dE             d eps       ncg     rms          rms(c)
DAV:   1    -0.114420343240E+03   -0.15866E-03   -0.21725E-02    70   0.810E-01    0.401E-02
RMM:   2    -0.114420349857E+03   -0.66169E-05   -0.29969E-04    69   0.905E-02    0.224E-02
RMM:   3    -0.114420360233E+03   -0.10376E-04   -0.59973E-05    57   0.385E-02    0.104E-02
RMM:   4    -0.114420363322E+03   -0.30891E-05   -0.98782E-06    45   0.165E-02
 189 F= -.11468580E+03 E0= -.11468580E+03  d E =-.134273E-03
       N       E                     dE             d eps       ncg     rms          rms(c)
DAV:   1    -0.114420567838E+03   -0.20761E-03   -0.30685E-02    70   0.959E-01    0.454E-02
RMM:   2    -0.114420581686E+03   -0.13847E-04   -0.43284E-04    70   0.108E-01    0.251E-02
RMM:   3    -0.114420595432E+03   -0.13746E-04   -0.88548E-05    64   0.453E-02    0.132E-02
RMM:   4    -0.114420599233E+03   -0.38010E-05   -0.11372E-05    44   0.187E-02
 190 F= -.11468599E+03 E0= -.11468599E+03  d E =-.181964E-03
       N       E                     dE             d eps       ncg     rms          rms(c)
DAV:   1    -0.114420681600E+03   -0.86169E-04   -0.43924E-03    73   0.365E-01    0.174E-02
RMM:   2    -0.114420683528E+03   -0.19275E-05   -0.62075E-05    55   0.412E-02
 191 F= -.11468605E+03 E0= -.11468605E+03  d E =-.640746E-04
       N       E                     dE             d eps       ncg     rms          rms(c)
DAV:   1    -0.114420723719E+03   -0.42119E-04   -0.11293E-03    76   0.180E-01    0.111E-02
RMM:   2    -0.114420724698E+03   -0.97937E-06   -0.20673E-05    48   0.227E-02
 192 F= -.11468607E+03 E0= -.11468607E+03  d E =-.249148E-04
       N       E                     dE             d eps       ncg     rms          rms(c)
DAV:   1    -0.114420830347E+03   -0.10663E-03   -0.48549E-03    70   0.377E-01    0.185E-02
RMM:   2    -0.114420832729E+03   -0.23823E-05   -0.78196E-05    59   0.453E-02
 193 F= -.11468615E+03 E0= -.11468615E+03  d E =-.796666E-04
       N       E                     dE             d eps       ncg     rms          rms(c)
DAV:   1    -0.114421007070E+03   -0.17672E-03   -0.93000E-03    70   0.505E-01    0.235E-02
RMM:   2    -0.114421013144E+03   -0.60746E-05   -0.15541E-04    65   0.626E-02    0.146E-02
RMM:   3    -0.114421017575E+03   -0.44308E-05   -0.26555E-05    50   0.269E-02
 194 F= -.11468628E+03 E0= -.11468628E+03  d E =-.130786E-03
       N       E                     dE             d eps       ncg     rms          rms(c)
DAV:   1    -0.114421072987E+03   -0.59843E-04   -0.91903E-04    76   0.154E-01    0.660E-03
RMM:   2    -0.114421074187E+03   -0.12000E-05   -0.16555E-05    47   0.204E-02
 195 F= -.11468632E+03 E0= -.11468632E+03  d E =-.378036E-04
       N       E                     dE             d eps       ncg     rms          rms(c)
DAV:   1    -0.114421170293E+03   -0.97305E-04   -0.44241E-03    70   0.345E-01    0.145E-02
RMM:   2    -0.114421174284E+03   -0.39913E-05   -0.73012E-05    57   0.424E-02
 196 F= -.11468639E+03 E0= -.11468639E+03  d E =-.640602E-04
       N       E                     dE             d eps       ncg     rms          rms(c)
DAV:   1    -0.114421331738E+03   -0.16145E-03   -0.77657E-02    70   0.148E+00    0.730E-02
RMM:   2    -0.114421375130E+03   -0.43392E-04   -0.11447E-03    70   0.172E-01    0.404E-02
RMM:   3    -0.114421401419E+03   -0.26288E-04   -0.19887E-04    67   0.730E-02    0.203E-02
RMM:   4    -0.114421410210E+03   -0.87918E-05   -0.37887E-05    56   0.323E-02
 197 F= -.11468651E+03 E0= -.11468651E+03  d E =-.125866E-03
       N       E                     dE             d eps       ncg     rms          rms(c)
DAV:   1    -0.114421464340E+03   -0.62921E-04   -0.29354E-02    73   0.919E-01    0.455E-02
RMM:   2    -0.114421478334E+03   -0.13994E-04   -0.42652E-04    68   0.105E-01    0.254E-02
RMM:   3    -0.114421489106E+03   -0.10773E-04   -0.79356E-05    60   0.444E-02    0.134E-02
RMM:   4    -0.114421492976E+03   -0.38697E-05   -0.15073E-05    47   0.195E-02
 198 F= -.11468656E+03 E0= -.11468656E+03  d E =-.441826E-04
       N       E                     dE             d eps       ncg     rms          rms(c)
DAV:   1    -0.114421729161E+03   -0.24005E-03   -0.36624E-02    70   0.987E-01    0.384E-02
RMM:   2    -0.114421765144E+03   -0.35983E-04   -0.57198E-04    69   0.119E-01    0.228E-02
RMM:   3    -0.114421776644E+03   -0.11500E-04   -0.97146E-05    62   0.499E-02    0.121E-02
RMM:   4    -0.114421779344E+03   -0.26991E-05   -0.14347E-05    47   0.205E-02
 199 F= -.11468674E+03 E0= -.11468674E+03  d E =-.181609E-03
       N       E                     dE             d eps       ncg     rms          rms(c)
DAV:   1    -0.114421922504E+03   -0.14586E-03   -0.15584E-02    70   0.654E-01    0.290E-02
RMM:   2    -0.114421934146E+03   -0.11642E-04   -0.24849E-04    67   0.787E-02    0.166E-02
RMM:   3    -0.114421938767E+03   -0.46207E-05   -0.39735E-05    52   0.329E-02
 200 F= -.11468684E+03 E0= -.11468684E+03  d E =-.973856E-04
       N       E                     dE             d eps       ncg     rms          rms(c)
DAV:   1    -0.114422076946E+03   -0.14280E-03   -0.68492E-03    70   0.417E-01    0.160E-02
RMM:   2    -0.114422083841E+03   -0.68954E-05   -0.11184E-04    59   0.527E-02    0.104E-02
RMM:   3    -0.114422086692E+03   -0.28506E-05   -0.19352E-05    48   0.223E-02
 201 F= -.11468694E+03 E0= -.11468694E+03  d E =-.999672E-04
       N       E                     dE             d eps       ncg     rms          rms(c)
DAV:   1    -0.114422254175E+03   -0.17033E-03   -0.10177E-02    70   0.510E-01    0.189E-02
RMM:   2    -0.114422264550E+03   -0.10376E-04   -0.16536E-04    63   0.637E-02    0.119E-02
RMM:   3    -0.114422268257E+03   -0.37064E-05   -0.28803E-05    51   0.268E-02
 202 F= -.11468706E+03 E0= -.11468706E+03  d E =-.124455E-03
       N       E                     dE             d eps       ncg     rms          rms(c)
DAV:   1    -0.114422611932E+03   -0.34738E-03   -0.54424E-02    70   0.119E+00    0.429E-02
RMM:   2    -0.114422666081E+03   -0.54149E-04   -0.86110E-04    70   0.145E-01    0.267E-02
RMM:   3    -0.114422683958E+03   -0.17877E-04   -0.15434E-04    66   0.614E-02    0.139E-02
RMM:   4    -0.114422687856E+03   -0.38982E-05   -0.24095E-05    51   0.262E-02
 203 F= -.11468734E+03 E0= -.11468734E+03  d E =-.283893E-03
       N       E                     dE             d eps       ncg     rms          rms(c)
DAV:   1    -0.114423010627E+03   -0.32667E-03   -0.49114E-02    70   0.115E+00    0.437E-02
RMM:   2    -0.114423057090E+03   -0.46463E-04   -0.77091E-04    70   0.138E-01    0.263E-02
RMM:   3    -0.114423075016E+03   -0.17926E-04   -0.13887E-04    66   0.583E-02    0.139E-02
RMM:   4    -0.114423079231E+03   -0.42155E-05   -0.21631E-05    50   0.243E-02
 204 F= -.11468762E+03 E0= -.11468762E+03  d E =-.272847E-03
       N       E                     dE             d eps       ncg     rms          rms(c)
DAV:   1    -0.114423333974E+03   -0.25896E-03   -0.30520E-02    70   0.915E-01    0.355E-02
RMM:   2    -0.114423361985E+03   -0.28011E-04   -0.47570E-04    70   0.109E-01    0.212E-02
RMM:   3    -0.114423374483E+03   -0.12497E-04   -0.90222E-05    61   0.463E-02    0.113E-02
RMM:   4    -0.114423377140E+03   -0.26575E-05   -0.11006E-05    45   0.185E-02
 205 F= -.11468782E+03 E0= -.11468782E+03  d E =-.206378E-03
       N       E                     dE             d eps       ncg     rms          rms(c)
DAV:   1    -0.114423592189E+03   -0.21771E-03   -0.22084E-02    70   0.789E-01    0.323E-02
RMM:   2    -0.114423610341E+03   -0.18153E-04   -0.34546E-04    70   0.936E-02    0.188E-02
RMM:   3    -0.114423618962E+03   -0.86210E-05   -0.65635E-05    57   0.397E-02
 206 F= -.11468799E+03 E0= -.11468799E+03  d E =-.166586E-03
       N       E                     dE             d eps       ncg     rms          rms(c)
DAV:   1    -0.114423955107E+03   -0.34477E-03   -0.65676E-02    70   0.136E+00    0.556E-02
RMM:   2    -0.114424009234E+03   -0.54127E-04   -0.10008E-03    70   0.161E-01    0.326E-02
RMM:   3    -0.114424036186E+03   -0.26952E-04   -0.19246E-04    71   0.685E-02    0.169E-02
RMM:   4    -0.114424041819E+03   -0.56327E-05   -0.25464E-05    51   0.287E-02
 207 F= -.11468828E+03 E0= -.11468828E+03  d E =-.294086E-03
       N       E                     dE             d eps       ncg     rms          rms(c)
DAV:   1    -0.114424287923E+03   -0.25174E-03   -0.34880E-02    70   0.100E+00    0.411E-02
RMM:   2    -0.114424316545E+03   -0.28623E-04   -0.53237E-04    70   0.117E-01    0.240E-02
RMM:   3    -0.114424331546E+03   -0.15000E-04   -0.10307E-04    65   0.496E-02    0.130E-02
RMM:   4    -0.114424334936E+03   -0.33900E-05   -0.12817E-05    46   0.201E-02
 208 F= -.11468849E+03 E0= -.11468849E+03  d E =-.203076E-03
       N       E                     dE             d eps       ncg     rms          rms(c)
DAV:   1    -0.114424527867E+03   -0.19632E-03   -0.19105E-02    70   0.740E-01    0.308E-02
RMM:   2    -0.114424543461E+03   -0.15593E-04   -0.29514E-04    69   0.873E-02    0.179E-02
RMM:   3    -0.114424551074E+03   -0.76130E-05   -0.56700E-05    56   0.370E-02
 209 F= -.11468863E+03 E0= -.11468863E+03  d E =-.147261E-03
       N       E                     dE             d eps       ncg     rms          rms(c)
DAV:   1    -0.114424755643E+03   -0.21218E-03   -0.22103E-02    70   0.800E-01    0.344E-02
RMM:   2    -0.114424771508E+03   -0.15866E-04   -0.33346E-04    70   0.944E-02    0.201E-02
RMM:   3    -0.114424781473E+03   -0.99649E-05   -0.65683E-05    59   0.404E-02
 210 F= -.11468879E+03 E0= -.11468879E+03  d E =-.158663E-03
       N       E                     dE             d eps       ncg     rms          rms(c)
DAV:   1    -0.114424883069E+03   -0.11156E-03   -0.42113E-03    70   0.350E-01    0.150E-02
RMM:   2    -0.114424886366E+03   -0.32969E-05   -0.67987E-05    57   0.425E-02
 211 F= -.11468886E+03 E0= -.11468886E+03  d E =-.708327E-04
       N       E                     dE             d eps       ncg     rms          rms(c)
DAV:   1    -0.114425220540E+03   -0.33747E-03   -0.74046E-02    70   0.146E+00    0.623E-02
RMM:   2    -0.114425276879E+03   -0.56339E-04   -0.11326E-03    70   0.172E-01    0.366E-02
RMM:   3    -0.114425308031E+03   -0.31152E-04   -0.21637E-04    74   0.730E-02    0.181E-02
RMM:   4    -0.114425314161E+03   -0.61303E-05   -0.27802E-05    51   0.301E-02
 212 F= -.11468915E+03 E0= -.11468915E+03  d E =-.287914E-03
       N       E                     dE             d eps       ncg     rms          rms(c)
DAV:   1    -0.114425330992E+03   -0.22961E-04   -0.12097E-04    92   0.587E-02    0.460E-03
RMM:   2    -0.114425331671E+03   -0.67818E-06   -0.26425E-06    37   0.861E-03
 213 F= -.11468916E+03 E0= -.11468916E+03  d E =-.106634E-04
       N       E                     dE             d eps       ncg     rms          rms(c)
DAV:   1    -0.114425374531E+03   -0.43539E-04   -0.58957E-04    76   0.126E-01    0.479E-03
RMM:   2    -0.114425375601E+03   -0.10698E-05   -0.99788E-06    43   0.158E-02
 214 F= -.11468919E+03 E0= -.11468919E+03  d E =-.286865E-04
       N       E                     dE             d eps       ncg     rms          rms(c)
DAV:   1    -0.114425689677E+03   -0.31515E-03   -0.43116E-02    70   0.106E+00    0.390E-02
RMM:   2    -0.114425730711E+03   -0.41033E-04   -0.66626E-04    70   0.130E-01    0.246E-02
RMM:   3    -0.114425745228E+03   -0.14517E-04   -0.11729E-04    66   0.549E-02    0.109E-02
RMM:   4    -0.114425748039E+03   -0.28114E-05   -0.16873E-05    48   0.226E-02
 215 F= -.11468942E+03 E0= -.11468942E+03  d E =-.232477E-03
