<?xml version="1.0" encoding="ISO-8859-1"?>
<modeling>
 <generator>
  <i name="program" type="string">vasp </i>
  <i name="version" type="string">6.3.2  </i>
  <i name="subversion" type="string">27Jun22 (build Oct 05 2023 17:59:42) gamma-only                       parallel </i>
  <i name="platform" type="string">LinuxIFC </i>
  <i name="date" type="string">2024 04 09 </i>
  <i name="time" type="string">10:49:28 </i>
 </generator>
 <incar>
  <i type="string" name="PREC">NORMAL</i>
  <i type="string" name="ALGO">Fast</i>
  <i type="int" name="ISPIN">     1</i>
  <i type="int" name="IBRION">     1</i>
  <i name="EDIFF">      0.00001000</i>
  <i name="EDIFFG">     -0.05000000</i>
  <i type="int" name="NSW">  5000</i>
  <i name="ENCUT">    400.00000000</i>
  <i name="POTIM">      0.10000000</i>
  <i type="int" name="ISMEAR">     0</i>
  <i name="SIGMA">      0.05000000</i>
  <i type="logical" name="LWAVE"> F  </i>
  <i type="logical" name="LCHARG"> F  </i>
  <i type="string" name="GGA">PE</i>
  <i type="int" name="IVDW">    11</i>
  <i name="SPRING">     -5.00000000</i>
 </incar>
 <primitive_cell>
  <structure name="primitive_cell" >
   <crystal>
    <varray name="basis" >
     <v>      15.00000000       0.00000000       0.00000000 </v>
     <v>       0.00000000      15.00000000       0.00000000 </v>
     <v>       0.00000000       0.00000000      15.00000000 </v>
    </varray>
    <i name="volume">   3375.00000000 </i>
    <varray name="rec_basis" >
     <v>       0.06666667       0.00000000       0.00000000 </v>
     <v>       0.00000000       0.06666667       0.00000000 </v>
     <v>       0.00000000       0.00000000       0.06666667 </v>
    </varray>
   </crystal>
   <varray name="positions" >
    <v>       0.38421029       0.53327247       0.60143138 </v>
    <v>       0.39803760       0.43904144       0.60947260 </v>
    <v>       0.47838170       0.40053820       0.62296595 </v>
    <v>       0.44678748       0.59493526       0.62053758 </v>
    <v>       0.52864889       0.52572376       0.45309411 </v>
    <v>       0.52322646       0.43509762       0.45880084 </v>
    <v>       0.59332452       0.57441366       0.50042553 </v>
    <v>       0.44751296       0.38531993       0.43228303 </v>
    <v>       0.34237510       0.39844955       0.58813981 </v>
    <v>       0.53792122       0.44063938       0.63003800 </v>
    <v>       0.48777472       0.32853926       0.62405555 </v>
    <v>       0.32178006       0.55445289       0.57081719 </v>
    <v>       0.51304209       0.57433063       0.64397700 </v>
    <v>       0.43480638       0.66630429       0.61476734 </v>
    <v>       0.48264647       0.56327435       0.41204853 </v>
    <v>       0.58056762       0.39876394       0.48412783 </v>
    <v>       0.64264036       0.61690323       0.54358809 </v>
    <v>       0.38623379       0.33916348       0.41770931 </v>
   </varray>
  </structure>
  <varray name="primitive_index" >
   <v type="int" >        1 </v>
   <v type="int" >        2 </v>
   <v type="int" >        3 </v>
   <v type="int" >        4 </v>
   <v type="int" >        5 </v>
   <v type="int" >        6 </v>
   <v type="int" >        7 </v>
   <v type="int" >        8 </v>
   <v type="int" >        9 </v>
   <v type="int" >       10 </v>
   <v type="int" >       11 </v>
   <v type="int" >       12 </v>
   <v type="int" >       13 </v>
   <v type="int" >       14 </v>
   <v type="int" >       15 </v>
   <v type="int" >       16 </v>
   <v type="int" >       17 </v>
   <v type="int" >       18 </v>
  </varray>
 </primitive_cell>
 <kpoints>
  <generation param="Monkhorst-Pack">
   <v type="int" name="divisions">       1        1        1 </v>
   <v name="usershift">      0.00000000       0.00000000       0.00000000 </v>
   <v name="genvec1">      1.00000000       0.00000000       0.00000000 </v>
   <v name="genvec2">      0.00000000       1.00000000       0.00000000 </v>
   <v name="genvec3">      0.00000000       0.00000000       1.00000000 </v>
   <v name="shift">      0.00000000       0.00000000       0.00000000 </v>
  </generation>
  <varray name="kpointlist" >
   <v>       0.00000000       0.00000000       0.00000000 </v>
  </varray>
  <varray name="weights" >
   <v>       1.00000000 </v>
  </varray>
 </kpoints>
 <parameters>
  <separator name="general" >
   <i type="string" name="SYSTEM">unknown system</i>
   <i type="logical" name="LCOMPAT"> F  </i>
  </separator>
  <separator name="electronic" >
   <i type="string" name="PREC">normal</i>
   <i name="ENMAX">    400.00000000</i>
   <i name="ENAUG">    644.87300000</i>
   <i name="EDIFF">      0.00001000</i>
   <i type="int" name="IALGO">    68</i>
   <i type="int" name="IWAVPR">    11</i>
   <i type="int" name="NBANDS">    35</i>
   <i type="int" name="NBANDSLOW">    -1</i>
   <i type="int" name="NBANDSHIGH">    -1</i>
   <i name="NELECT">     50.00000000</i>
   <i type="int" name="TURBO">     0</i>
   <i type="int" name="IRESTART">     0</i>
   <i type="int" name="NREBOOT">     0</i>
   <i type="int" name="NMIN">     0</i>
   <i name="EREF">      0.00000000</i>
   <separator name="electronic smearing" >
    <i type="int" name="ISMEAR">     0</i>
    <i name="SIGMA">      0.05000000</i>
    <i name="KSPACING">      0.50000000</i>
    <i type="logical" name="KGAMMA"> T  </i>
    <i type="logical" name="KBLOWUP"> T  </i>
   </separator>
   <separator name="electronic projectors" >
    <i type="logical" name="LREAL"> F  </i>
    <v name="ROPT">      0.00000000      0.00000000      0.00000000</v>
    <i type="int" name="LMAXPAW">  -100</i>
    <i type="int" name="LMAXMIX">     2</i>
    <i type="logical" name="NLSPLINE"> F  </i>
   </separator>
   <separator name="electronic startup" >
    <i type="int" name="ISTART">     0</i>
    <i type="int" name="ICHARG">     2</i>
    <i type="int" name="INIWAV">     1</i>
   </separator>
   <separator name="electronic spin" >
    <i type="int" name="ISPIN">     1</i>
    <i type="logical" name="LNONCOLLINEAR"> F  </i>
    <v name="MAGMOM">      1.00000000      1.00000000      1.00000000      1.00000000      1.00000000      1.00000000      1.00000000      1.00000000      1.00000000      1.00000000      1.00000000      1.00000000      1.00000000      1.00000000      1.00000000      1.00000000      1.00000000      1.00000000</v>
    <i name="NUPDOWN">     -1.00000000</i>
    <i type="logical" name="LSORBIT"> F  </i>
    <v name="SAXIS">      0.00000000      0.00000000      1.00000000</v>
    <i type="logical" name="LSPIRAL"> F  </i>
    <v name="QSPIRAL">      0.00000000      0.00000000      0.00000000</v>
    <i type="logical" name="LZEROZ"> F  </i>
   </separator>
   <separator name="electronic exchange-correlation" >
    <i type="logical" name="LASPH"> F  </i>
    <i type="logical" name="LMETAGGA"> F  </i>
   </separator>
   <separator name="electronic convergence" >
    <i type="int" name="NELM">    60</i>
    <i type="int" name="NELMDL">    -5</i>
    <i type="int" name="NELMIN">     2</i>
    <i name="ENINI">    400.00000000</i>
    <separator name="electronic convergence detail" >
     <i type="logical" name="LDIAG"> T  </i>
     <i type="logical" name="LSUBROT"> F  </i>
     <i name="WEIMIN">      0.00100000</i>
     <i name="EBREAK">      0.00000007</i>
     <i name="DEPER">      0.30000000</i>
     <i type="int" name="NRMM">     4</i>
     <i name="TIME">      0.40000000</i>
    </separator>
   </separator>
   <separator name="electronic mixer" >
    <i name="AMIX">      0.40000000</i>
    <i name="BMIX">      1.00000000</i>
    <i name="AMIN">      0.10000000</i>
    <i name="AMIX_MAG">      1.60000000</i>
    <i name="BMIX_MAG">      1.00000000</i>
    <separator name="electronic mixer details" >
     <i type="int" name="IMIX">     4</i>
     <i type="logical" name="MIXFIRST"> F  </i>
     <i type="int" name="MAXMIX">   -45</i>
     <i name="WC">    100.00000000</i>
     <i type="int" name="INIMIX">     1</i>
     <i type="int" name="MIXPRE">     1</i>
     <i type="int" name="MREMOVE">     5</i>
    </separator>
   </separator>
   <separator name="electronic dipolcorrection" >
    <i type="logical" name="LDIPOL"> F  </i>
    <i type="logical" name="LMONO"> F  </i>
    <i type="int" name="IDIPOL">     0</i>
    <i name="EPSILON">      1.00000000</i>
    <v name="DIPOL">   -100.00000000   -100.00000000   -100.00000000</v>
    <i name="EFIELD">      0.00000000</i>
   </separator>
  </separator>
  <separator name="grids" >
   <i type="int" name="NGX">    80</i>
   <i type="int" name="NGY">    80</i>
   <i type="int" name="NGZ">    80</i>
   <i type="int" name="NGXF">   160</i>
   <i type="int" name="NGYF">   160</i>
   <i type="int" name="NGZF">   160</i>
   <i type="logical" name="ADDGRID"> F  </i>
  </separator>
  <separator name="ionic" >
   <i type="int" name="NSW">  5000</i>
   <i type="int" name="IBRION">     1</i>
   <i type="int" name="MDALGO">     0</i>
   <i type="int" name="ISIF">     2</i>
   <i name="PSTRESS">      0.00000000</i>
   <i name="EDIFFG">     -0.05000000</i>
   <i type="int" name="NFREE">     0</i>
   <i name="POTIM">      0.10000000</i>
   <i name="SMASS">     -3.00000000</i>
   <i name="SCALEE">      1.00000000</i>
  </separator>
  <separator name="ionic md" >
   <i name="TEBEG">      0.00010000</i>
   <i name="TEEND">      0.00010000</i>
   <i type="int" name="NBLOCK">     1</i>
   <i type="int" name="KBLOCK">  5000</i>
   <i type="int" name="NPACO">   256</i>
   <i name="APACO">     10.00000000</i>
  </separator>
  <separator name="symmetry" >
   <i type="int" name="ISYM">     2</i>
   <i name="SYMPREC">      0.00001000</i>
  </separator>
  <separator name="dos" >
   <i type="int" name="LORBIT">     0</i>
   <v name="RWIGS">     -1.00000000     -1.00000000     -1.00000000</v>
   <i type="int" name="NEDOS">   301</i>
   <i name="EMIN">     10.00000000</i>
   <i name="EMAX">    -10.00000000</i>
   <i name="EFERMI">      0.00000000</i>
  </separator>
  <separator name="writing" >
   <i type="int" name="NWRITE">     2</i>
   <i type="logical" name="LWAVE"> F  </i>
   <i type="logical" name="LDOWNSAMPLE"> F  </i>
   <i type="logical" name="LCHARG"> F  </i>
   <i type="logical" name="LPARD"> F  </i>
   <i type="logical" name="LVTOT"> F  </i>
   <i type="logical" name="LVHAR"> F  </i>
   <i type="logical" name="LELF"> F  </i>
   <i type="logical" name="LOPTICS"> F  </i>
   <v name="STM">      0.00000000      0.00000000      0.00000000      0.00000000      0.00000000      0.00000000      0.00000000</v>
  </separator>
  <separator name="performance" >
   <i type="int" name="NPAR">     1</i>
   <i type="int" name="NSIM">     4</i>
   <i type="int" name="NBLK">    -1</i>
   <i type="logical" name="LPLANE"> T  </i>
   <i type="logical" name="LSCALAPACK"> T  </i>
   <i type="logical" name="LSCAAWARE"> F  </i>
   <i type="logical" name="LSCALU"> F  </i>
   <i type="logical" name="LASYNC"> F  </i>
   <i type="logical" name="LORBITALREAL"> F  </i>
  </separator>
  <separator name="miscellaneous" >
   <i type="int" name="IDIOT">     3</i>
   <i type="int" name="PHON_NSTRUCT">    -1</i>
   <i type="logical" name="LMUSIC"> F  </i>
   <v name="POMASS">     12.01100000      1.00000000     14.00100000</v>
   <v name="DARWINR">      0.00000000      0.00000000      0.00000000</v>
   <v name="DARWINV">      1.00000000      1.00000000      1.00000000</v>
   <i type="logical" name="LCORR"> T  </i>
  </separator>
  <i type="logical" name="GGA_COMPAT"> T  </i>
  <i type="logical" name="LBERRY"> F  </i>
  <i type="int" name="ICORELEVEL">     0</i>
  <i type="logical" name="LDAU"> F  </i>
  <i type="int" name="I_CONSTRAINED_M">     0</i>
  <separator name="electronic exchange-correlation" >
   <i type="string" name="GGA">PE</i>
   <i type="int" name="VOSKOWN">     0</i>
   <i type="logical" name="LHFCALC"> F  </i>
   <i type="string" name="PRECFOCK"></i>
   <i type="logical" name="LSYMGRAD"> F  </i>
   <i type="logical" name="LHFONE"> F  </i>
   <i type="logical" name="LRHFCALC"> F  </i>
   <i type="logical" name="LTHOMAS"> F  </i>
   <i type="logical" name="LMODELHF"> F  </i>
   <i type="logical" name="LFOCKACE"> F  </i>
   <i name="ENCUT4O">     -1.00000000</i>
   <i type="int" name="EXXOEP">     0</i>
   <i type="int" name="FOURORBIT">     0</i>
   <i name="AEXX">      0.00000000</i>
   <i name="HFALPHA">      0.00000000</i>
   <i name="MCALPHA">      0.00000000</i>
   <i name="ALDAX">      1.00000000</i>
   <i name="AGGAX">      1.00000000</i>
   <i name="ALDAC">      1.00000000</i>
   <i name="AGGAC">      1.00000000</i>
   <i type="int" name="NKREDX">     1</i>
   <i type="int" name="NKREDY">     1</i>
   <i type="int" name="NKREDZ">     1</i>
   <i type="logical" name="SHIFTRED"> F  </i>
   <i type="logical" name="ODDONLY"> F  </i>
   <i type="logical" name="EVENONLY"> F  </i>
   <i type="int" name="LMAXFOCK">     0</i>
   <i type="int" name="NMAXFOCKAE">     0</i>
   <i type="logical" name="LFOCKAEDFT"> F  </i>
   <i name="HFSCREEN">      0.00000000</i>
   <i name="HFSCREENC">      0.00000000</i>
   <i type="int" name="NBANDSGWLOW">     0</i>
  </separator>
  <separator name="vdW DFT" >
   <i type="logical" name="LUSE_VDW"> F  </i>
   <i name="Zab_VDW">     -0.84910000</i>
   <i name="PARAM1">      0.12340000</i>
   <i name="PARAM2">      1.00000000</i>
   <i name="PARAM3">      0.00000000</i>
  </separator>
  <separator name="model GW" >
   <i type="int" name="MODEL_GW">     0</i>
   <i name="MODEL_EPS0">    112.50000000</i>
   <i name="MODEL_ALPHA">      1.00000000</i>
  </separator>
  <separator name="linear response parameters" >
   <i type="logical" name="LEPSILON"> F  </i>
   <i type="logical" name="LRPA"> F  </i>
   <i type="logical" name="LNABLA"> F  </i>
   <i type="logical" name="LVEL"> F  </i>
   <i name="CSHIFT">      0.10000000</i>
   <i name="OMEGAMAX">     -1.00000000</i>
   <i name="DEG_THRESHOLD">      0.00200000</i>
   <i name="RTIME">     -0.10000000</i>
   <i name="WPLASMAI">      0.00000000</i>
   <v name="DFIELD">      0.00000000      0.00000000      0.00000000</v>
   <v name="WPLASMA">      0.00000000      0.00000000      0.00000000      0.00000000      0.00000000      0.00000000      0.00000000      0.00000000      0.00000000</v>
  </separator>
  <separator name="orbital magnetization" >
   <i type="logical" name="NUCIND"> F  </i>
   <v name="MAGPOS">      0.00000000      0.00000000      0.00000000</v>
   <i type="logical" name="LNICSALL"> T  </i>
   <i type="logical" name="ORBITALMAG"> F  </i>
   <i type="logical" name="LMAGBLOCH"> F  </i>
   <i type="logical" name="LCHIMAG"> F  </i>
   <i type="logical" name="LGAUGE"> T  </i>
   <i type="int" name="MAGATOM">     0</i>
   <v name="MAGDIPOL">      0.00000000      0.00000000      0.00000000</v>
   <v name="AVECCONST">      0.00000000      0.00000000      0.00000000</v>
  </separator>
  <separator name="response functions" >
   <i type="logical" name="LFINITE_TEMPERATURE"> F  </i>
   <i type="logical" name="LADDER"> F  </i>
   <i type="logical" name="LRPAFORCE"> F  </i>
   <i type="logical" name="LFXC"> F  </i>
   <i type="logical" name="LHARTREE"> T  </i>
   <i type="int" name="IBSE">     0</i>
   <v type="int" name="KPOINT">    -1     0     0     0</v>
   <i type="logical" name="LTCTC"> F  </i>
   <i type="logical" name="LTCTE"> F  </i>
   <i type="logical" name="LTETE"> F  </i>
   <i type="logical" name="LTRIPLET"> F  </i>
   <i type="logical" name="LFXCEPS"> F  </i>
   <i type="logical" name="LFXHEG"> F  </i>
   <i type="int" name="NATURALO">     2</i>
   <i type="logical" name="LHOLEGF"> F  </i>
   <i type="logical" name="L2ORDER"> F  </i>
   <i type="logical" name="LDMP1"> F  </i>
   <i type="logical" name="LMP2LT"> F  </i>
   <i type="logical" name="LSMP2LT"> F  </i>
   <i type="logical" name="LGWLF"> F  </i>
   <i name="ENCUTGW">     -2.00000000</i>
   <i name="ENCUTGWSOFT">     -2.00000000</i>
   <i name="ENCUTLF">     -1.00000000</i>
   <i type="logical" name="LESF_SPLINES"> F  </i>
   <i type="int" name="LMAXMP2">    -1</i>
   <i name="SCISSOR">      0.00000000</i>
   <i type="int" name="NOMEGA">     0</i>
   <i type="int" name="NOMEGAR">     0</i>
   <i type="int" name="NBANDSGW">    -1</i>
   <i type="int" name="NBANDSO">    -1</i>
   <i type="int" name="NBANDSV">    -1</i>
   <i type="int" name="NELMGW">     1</i>
   <i type="int" name="NELMHF">     1</i>
   <i type="int" name="DIM">     3</i>
   <i type="int" name="IESPILON">     4</i>
   <i type="int" name="ANTIRES">     0</i>
   <i name="OMEGAMAX">    -30.00000000</i>
   <i name="OMEGAMIN">    -30.00000000</i>
   <i name="OMEGATL">   -200.00000000</i>
   <i type="int" name="OMEGAGRID">     0</i>
   <i name="CSHIFT">     -0.10000000</i>
   <i type="logical" name="LSELFENERGY"> F  </i>
   <i type="logical" name="LSPECTRAL"> F  </i>
   <i type="logical" name="LSPECTRALGW"> F  </i>
   <i type="logical" name="LSINGLES"> F  </i>
   <i type="logical" name="LFERMIGW"> F  </i>
   <i type="logical" name="ODDONLYGW"> F  </i>
   <i type="logical" name="EVENONLYGW"> F  </i>
   <i type="int" name="NKREDLFX">     1</i>
   <i type="int" name="NKREDLFY">     1</i>
   <i type="int" name="NKREDLFZ">     1</i>
   <i type="int" name="MAXMEM">  2800</i>
   <i type="int" name="TELESCOPE">     0</i>
   <i type="int" name="NTAUPAR">    -1</i>
   <i type="int" name="NOMEGAPAR">    -1</i>
   <i name="DAMP_NEWTON">      0.80000001</i>
   <i name="LAMBDA">      1.00000000</i>
  </separator>
  <separator name="External order field" >
   <i name="OFIELD_KAPPA">      0.00000000</i>
   <v name="OFIELD_K">      0.00000000      0.00000000      0.00000000</v>
   <i name="OFIELD_Q6_NEAR">      0.00000000</i>
   <i name="OFIELD_Q6_FAR">      0.00000000</i>
   <i name="OFIELD_A">      0.00000000</i>
  </separator>
  <separator name="optional k-points parameters" >
   <i type="int" name="KPOINTS_OPT_MODE">     1</i>
   <i type="logical" name="LKPOINTS_OPT"> F  </i>
  </separator>
 </parameters>
 <atominfo>
  <atoms>      18 </atoms>
  <types>       3 </types>
  <array name="atoms" >
   <dimension dim="1">ion</dimension>
   <field type="string">element</field>
   <field type="int">atomtype</field>
   <set>
    <rc><c>C </c><c>   1</c></rc>
    <rc><c>C </c><c>   1</c></rc>
    <rc><c>C </c><c>   1</c></rc>
    <rc><c>C </c><c>   1</c></rc>
    <rc><c>C </c><c>   1</c></rc>
    <rc><c>C </c><c>   1</c></rc>
    <rc><c>C </c><c>   1</c></rc>
    <rc><c>C </c><c>   1</c></rc>
    <rc><c>H </c><c>   2</c></rc>
    <rc><c>H </c><c>   2</c></rc>
    <rc><c>H </c><c>   2</c></rc>
    <rc><c>H </c><c>   2</c></rc>
    <rc><c>H </c><c>   2</c></rc>
    <rc><c>H </c><c>   2</c></rc>
    <rc><c>H </c><c>   2</c></rc>
    <rc><c>H </c><c>   2</c></rc>
    <rc><c>N </c><c>   3</c></rc>
    <rc><c>N </c><c>   3</c></rc>
   </set>
  </array>
  <array name="atomtypes" >
   <dimension dim="1">type</dimension>
   <field type="int">atomspertype</field>
   <field type="string">element</field>
   <field>mass</field>
   <field>valence</field>
   <field type="string">pseudopotential</field>
   <set>
    <rc><c>   8</c><c>C </c><c>     12.01100000</c><c>      4.00000000</c><c>  PAW_PBE C 08Apr2002                   </c></rc>
    <rc><c>   8</c><c>H </c><c>      1.00000000</c><c>      1.00000000</c><c>  PAW_PBE H 15Jun2001                   </c></rc>
    <rc><c>   2</c><c>N </c><c>     14.00100000</c><c>      5.00000000</c><c>  PAW_PBE N 08Apr2002                   </c></rc>
   </set>
  </array>
 </atominfo>
 <structure name="initialpos" >
  <crystal>
   <varray name="basis" >
    <v>      15.00000000       0.00000000       0.00000000 </v>
    <v>       0.00000000      15.00000000       0.00000000 </v>
    <v>       0.00000000       0.00000000      15.00000000 </v>
   </varray>
   <i name="volume">   3375.00000000 </i>
   <varray name="rec_basis" >
    <v>       0.06666667       0.00000000       0.00000000 </v>
    <v>       0.00000000       0.06666667       0.00000000 </v>
    <v>       0.00000000       0.00000000       0.06666667 </v>
   </varray>
  </crystal>
  <varray name="positions" >
   <v>       0.38421029       0.53327247       0.60143138 </v>
   <v>       0.39803760       0.43904144       0.60947260 </v>
   <v>       0.47838170       0.40053820       0.62296595 </v>
   <v>       0.44678748       0.59493526       0.62053758 </v>
   <v>       0.52864889       0.52572376       0.45309411 </v>
   <v>       0.52322646       0.43509762       0.45880084 </v>
   <v>       0.59332452       0.57441366       0.50042553 </v>
   <v>       0.44751296       0.38531993       0.43228303 </v>
   <v>       0.34237510       0.39844955       0.58813981 </v>
   <v>       0.53792122       0.44063938       0.63003800 </v>
   <v>       0.48777472       0.32853926       0.62405555 </v>
   <v>       0.32178006       0.55445289       0.57081719 </v>
   <v>       0.51304209       0.57433063       0.64397700 </v>
   <v>       0.43480638       0.66630429       0.61476734 </v>
   <v>       0.48264647       0.56327435       0.41204853 </v>
   <v>       0.58056762       0.39876394       0.48412783 </v>
   <v>       0.64264036       0.61690323       0.54358809 </v>
   <v>       0.38623379       0.33916348       0.41770931 </v>
  </varray>
 </structure>
 <calculation>
  <scstep>
   <time name="dav">    2.73    2.85</time>
   <time name="total">    4.26    4.39</time>
   <energy>
    <i name="alphaZ">      3.36120243 </i>
    <i name="ewald">   2948.36822453 </i>
    <i name="hartreedc">  -4197.54933161 </i>
    <i name="XCdc">    159.34993226 </i>
    <i name="pawpsdc">   1295.11405375 </i>
    <i name="pawaedc">  -1302.12229068 </i>
    <i name="eentropy">     -0.00000394 </i>
    <i name="bandstr">   -258.86195434 </i>
    <i name="atom">   1805.79685712 </i>
    <i name="e_fr_energy">    453.45668953 </i>
    <i name="e_wo_entrp">    453.45669347 </i>
    <i name="e_0_energy">    453.45669150 </i>
   </energy>
  </scstep>
  <scstep>
   <time name="dav">    5.03    5.03</time>
   <time name="total">    5.03    5.05</time>
   <energy>
    <i name="e_fr_energy">     90.21285062 </i>
    <i name="e_wo_entrp">     90.21285062 </i>
    <i name="e_0_energy">     90.21285062 </i>
   </energy>
  </scstep>
  <scstep>
   <time name="dav">    3.58    4.18</time>
   <time name="total">    3.58    4.18</time>
   <energy>
    <i name="e_fr_energy">   -102.62627496 </i>
    <i name="e_wo_entrp">   -102.62627496 </i>
    <i name="e_0_energy">   -102.62627496 </i>
   </energy>
  </scstep>
  <scstep>
   <time name="dav">    2.90    2.93</time>
   <time name="total">    2.90    2.93</time>
   <energy>
    <i name="e_fr_energy">   -124.91243986 </i>
    <i name="e_wo_entrp">   -124.91243986 </i>
    <i name="e_0_energy">   -124.91243986 </i>
   </energy>
  </scstep>
  <scstep>
   <time name="dav">    2.68    2.68</time>
   <time name="total">    2.95    2.95</time>
   <energy>
    <i name="e_fr_energy">   -125.41891261 </i>
    <i name="e_wo_entrp">   -125.41891261 </i>
    <i name="e_0_energy">   -125.41891261 </i>
   </energy>
  </scstep>
  <scstep>
   <time name="diag">    0.32    0.32</time>
   <time name="diis">    2.21    2.22</time>
   <time name="orth">    0.01    0.01</time>
   <time name="total">    4.16    4.16</time>
   <energy>
    <i name="e_fr_energy">   -116.15273017 </i>
    <i name="e_wo_entrp">   -116.15273017 </i>
    <i name="e_0_energy">   -116.15273017 </i>
   </energy>
  </scstep>
  <scstep>
   <time name="diag">    0.36    0.36</time>
   <time name="diis">    2.26    2.26</time>
   <time name="orth">    0.01    0.01</time>
   <time name="total">    4.37    4.38</time>
   <energy>
    <i name="e_fr_energy">   -113.99936350 </i>
    <i name="e_wo_entrp">   -113.99936350 </i>
    <i name="e_0_energy">   -113.99936350 </i>
   </energy>
  </scstep>
  <scstep>
   <time name="diag">    0.38    0.38</time>
   <time name="diis">    2.33    2.33</time>
   <time name="orth">    0.01    0.01</time>
   <time name="total">    4.47    4.47</time>
   <energy>
    <i name="e_fr_energy">   -113.85843717 </i>
    <i name="e_wo_entrp">   -113.85843717 </i>
    <i name="e_0_energy">   -113.85843717 </i>
   </energy>
  </scstep>
  <scstep>
   <time name="diag">    0.35    0.35</time>
   <time name="diis">    3.01    3.02</time>
   <time name="orth">    0.03    0.03</time>
   <time name="total">    5.36    5.36</time>
   <energy>
    <i name="e_fr_energy">   -113.79273982 </i>
    <i name="e_wo_entrp">   -113.79273982 </i>
    <i name="e_0_energy">   -113.79273982 </i>
   </energy>
  </scstep>
  <scstep>
   <time name="diag">    0.87    0.87</time>
   <time name="diis">    5.32    5.32</time>
   <time name="orth">    0.03    0.04</time>
   <time name="total">    9.55    9.56</time>
   <energy>
    <i name="e_fr_energy">   -113.79970650 </i>
    <i name="e_wo_entrp">   -113.79970650 </i>
    <i name="e_0_energy">   -113.79970650 </i>
   </energy>
  </scstep>
  <scstep>
   <time name="diag">    0.80    0.80</time>
   <time name="diis">    4.81    4.81</time>
   <time name="orth">    0.04    0.05</time>
   <time name="total">    9.24    9.25</time>
   <energy>
    <i name="e_fr_energy">   -113.80815024 </i>
    <i name="e_wo_entrp">   -113.80815024 </i>
    <i name="e_0_energy">   -113.80815024 </i>
   </energy>
  </scstep>
  <scstep>
   <time name="diag">    0.63    0.63</time>
   <time name="diis">    4.39    4.39</time>
   <time name="orth">    0.02    0.03</time>
   <time name="total">    8.36    8.38</time>
   <energy>
    <i name="e_fr_energy">   -113.80957184 </i>
    <i name="e_wo_entrp">   -113.80957184 </i>
    <i name="e_0_energy">   -113.80957184 </i>
   </energy>
  </scstep>
  <scstep>
   <time name="diag">    0.73    0.73</time>
   <time name="diis">    4.50    4.50</time>
   <time name="orth">    0.03    0.03</time>
   <time name="total">    8.71    8.71</time>
   <energy>
    <i name="e_fr_energy">   -113.82223604 </i>
    <i name="e_wo_entrp">   -113.82223604 </i>
    <i name="e_0_energy">   -113.82223604 </i>
   </energy>
  </scstep>
  <scstep>
   <time name="diag">    0.96    0.96</time>
   <time name="diis">    5.09    5.09</time>
   <time name="orth">    0.03    0.03</time>
   <time name="total">    9.74    9.74</time>
   <energy>
    <i name="e_fr_energy">   -113.82424620 </i>
    <i name="e_wo_entrp">   -113.82424620 </i>
    <i name="e_0_energy">   -113.82424620 </i>
   </energy>
  </scstep>
  <scstep>
   <time name="diag">    0.89    0.89</time>
   <time name="diis">    5.01    5.02</time>
   <time name="orth">    0.03    0.04</time>
   <time name="total">    9.61    9.63</time>
   <energy>
    <i name="e_fr_energy">   -113.83453113 </i>
    <i name="e_wo_entrp">   -113.83453113 </i>
    <i name="e_0_energy">   -113.83453113 </i>
   </energy>
  </scstep>
  <scstep>
   <time name="diag">    0.76    0.76</time>
   <time name="diis">    4.60    4.60</time>
   <time name="orth">    0.02    0.03</time>
   <time name="total">    8.77    8.78</time>
   <energy>
    <i name="e_fr_energy">   -113.83652607 </i>
    <i name="e_wo_entrp">   -113.83652607 </i>
    <i name="e_0_energy">   -113.83652607 </i>
   </energy>
  </scstep>
  <scstep>
   <time name="diag">    0.63    0.63</time>
   <time name="diis">    2.82    2.82</time>
   <time name="orth">    0.02    0.02</time>
   <time name="total">    6.05    6.05</time>
   <energy>
    <i name="e_fr_energy">   -113.83825502 </i>
    <i name="e_wo_entrp">   -113.83825502 </i>
    <i name="e_0_energy">   -113.83825502 </i>
   </energy>
  </scstep>
  <scstep>
   <time name="diag">    0.33    0.33</time>
   <time name="diis">    1.71    1.71</time>
   <time name="orth">    0.01    0.01</time>
   <time name="total">    3.94    3.94</time>
   <energy>
    <i name="e_fr_energy">   -113.83889323 </i>
    <i name="e_wo_entrp">   -113.83889323 </i>
    <i name="e_0_energy">   -113.83889323 </i>
   </energy>
  </scstep>
  <scstep>
   <time name="diag">    0.32    0.32</time>
   <time name="diis">    1.66    1.66</time>
   <time name="orth">    0.01    0.01</time>
   <time name="total">    3.83    3.84</time>
   <energy>
    <i name="e_fr_energy">   -113.83934162 </i>
    <i name="e_wo_entrp">   -113.83934162 </i>
    <i name="e_0_energy">   -113.83934162 </i>
   </energy>
  </scstep>
  <scstep>
   <time name="diag">    0.34    0.34</time>
   <time name="diis">    1.19    1.19</time>
   <time name="orth">    0.01    0.01</time>
   <time name="total">    3.32    3.32</time>
   <energy>
    <i name="e_fr_energy">   -113.83938647 </i>
    <i name="e_wo_entrp">   -113.83938647 </i>
    <i name="e_0_energy">   -113.83938647 </i>
   </energy>
  </scstep>
  <scstep>
   <time name="diag">    0.23    0.23</time>
   <time name="diis">    0.90    0.90</time>
   <time name="orth">    0.01    0.01</time>
   <time name="total">    2.73    2.73</time>
   <energy>
    <i name="e_fr_energy">   -113.83949527 </i>
    <i name="e_wo_entrp">   -113.83949527 </i>
    <i name="e_0_energy">   -113.83949527 </i>
   </energy>
  </scstep>
  <scstep>
   <time name="diag">    0.23    0.23</time>
   <time name="diis">    0.85    0.85</time>
   <time name="orth">    0.01    0.01</time>
   <time name="total">    2.69    2.70</time>
   <energy>
    <i name="e_fr_energy">   -113.83951404 </i>
    <i name="e_wo_entrp">   -113.83951404 </i>
    <i name="e_0_energy">   -113.83951404 </i>
   </energy>
  </scstep>
  <scstep>
   <time name="diag">    0.23    0.23</time>
   <time name="diis">    0.80    0.80</time>
   <time name="orth">    0.01    0.01</time>
   <time name="total">    2.65    2.66</time>
   <energy>
    <i name="e_fr_energy">   -113.83953218 </i>
    <i name="e_wo_entrp">   -113.83953218 </i>
    <i name="e_0_energy">   -113.83953218 </i>
   </energy>
  </scstep>
  <scstep>
   <time name="diag">    0.30    0.30</time>
   <time name="diis">    0.81    0.81</time>
   <time name="orth">    0.01    0.01</time>
   <time name="total">    2.49    2.51</time>
   <energy>
    <i name="alphaZ">      3.36120243 </i>
    <i name="ewald">   2948.36822453 </i>
    <i name="hartreedc">  -4399.83437309 </i>
    <i name="XCdc">    169.66041835 </i>
    <i name="pawpsdc">   4422.61432016 </i>
    <i name="pawaedc">  -4430.98931926 </i>
    <i name="eentropy">     -0.00000000 </i>
    <i name="bandstr">   -632.81686743 </i>
    <i name="atom">   1805.79685712 </i>
    <i name="e_fr_energy">   -113.83953719 </i>
    <i name="e_wo_entrp">   -113.83953719 </i>
    <i name="e_0_energy">   -113.83953719 </i>
   </energy>
  </scstep>
  <structure>
   <crystal>
    <varray name="basis" >
     <v>      15.00000000       0.00000000       0.00000000 </v>
     <v>       0.00000000      15.00000000       0.00000000 </v>
     <v>       0.00000000       0.00000000      15.00000000 </v>
    </varray>
    <i name="volume">   3375.00000000 </i>
    <varray name="rec_basis" >
     <v>       0.06666667       0.00000000       0.00000000 </v>
     <v>       0.00000000       0.06666667       0.00000000 </v>
     <v>       0.00000000       0.00000000       0.06666667 </v>
    </varray>
   </crystal>
   <varray name="positions" >
    <v>       0.38421029       0.53327247       0.60143138 </v>
    <v>       0.39803760       0.43904144       0.60947260 </v>
    <v>       0.47838170       0.40053820       0.62296595 </v>
    <v>       0.44678748       0.59493526       0.62053758 </v>
    <v>       0.52864889       0.52572376       0.45309411 </v>
    <v>       0.52322646       0.43509762       0.45880084 </v>
    <v>       0.59332452       0.57441366       0.50042553 </v>
    <v>       0.44751296       0.38531993       0.43228303 </v>
    <v>       0.34237510       0.39844955       0.58813981 </v>
    <v>       0.53792122       0.44063938       0.63003800 </v>
    <v>       0.48777472       0.32853926       0.62405555 </v>
    <v>       0.32178006       0.55445289       0.57081719 </v>
    <v>       0.51304209       0.57433063       0.64397700 </v>
    <v>       0.43480638       0.66630429       0.61476734 </v>
    <v>       0.48264647       0.56327435       0.41204853 </v>
    <v>       0.58056762       0.39876394       0.48412783 </v>
    <v>       0.64264036       0.61690323       0.54358809 </v>
    <v>       0.38623379       0.33916348       0.41770931 </v>
   </varray>
  </structure>
  <varray name="forces" >
   <v>       0.08536175       0.55628304      -0.09937489 </v>
   <v>       0.30703228      -0.31854320      -0.16191889 </v>
   <v>      -0.28631168      -0.20509010       0.15441347 </v>
   <v>       0.09795496      -0.06517731       0.21564721 </v>
   <v>      -0.07596523      -0.34763888      -0.29644012 </v>
   <v>       0.22516438       0.40537676      -0.24456448 </v>
   <v>       0.48207365       0.18868903      -0.24676900 </v>
   <v>       0.20349345      -0.28092382      -0.40669292 </v>
   <v>      -0.32973029      -0.42092043       0.30466637 </v>
   <v>       0.24910017       0.10061861       0.42414701 </v>
   <v>      -0.10463055      -0.05000462       0.01226603 </v>
   <v>      -0.24089667       0.07513590       0.21483597 </v>
   <v>      -0.38822491       0.27755625       0.23047477 </v>
   <v>       0.01513505       0.02607608      -0.16189505 </v>
   <v>      -0.41478376       0.20654743       0.13033561 </v>
   <v>      -0.07081091      -0.25841192       0.22611697 </v>
   <v>       0.26529081      -0.00080663      -0.08091514 </v>
   <v>      -0.01925251       0.11123382      -0.21433292 </v>
  </varray>
  <varray name="stress" >
   <v>      -0.17799278       0.22800626      -0.17204986 </v>
   <v>       0.22800626      -0.01168891       0.02159756 </v>
   <v>      -0.17204986       0.02159756       0.03970244 </v>
  </varray>
  <energy>
   <i name="e_fr_energy">   -114.13778490 </i>
   <i name="e_wo_entrp">   -114.13778490 </i>
   <i name="e_0_energy">   -114.13778490 </i>
  </energy>
  <time name="totalsc">  139.37  140.72</time>
 </calculation>
 <calculation>
  <scstep>
   <time name="dav">    4.34    4.66</time>
   <time name="total">    7.26    7.81</time>
   <energy>
    <i name="alphaZ">      3.36120243 </i>
    <i name="ewald">   2941.63773951 </i>
    <i name="hartreedc">  -4393.54965599 </i>
    <i name="XCdc">    169.61454781 </i>
    <i name="pawpsdc">   4422.63592931 </i>
    <i name="pawaedc">  -4431.01091562 </i>
    <i name="eentropy">     -0.00000000 </i>
    <i name="bandstr">   -632.34223207 </i>
    <i name="atom">   1805.79685712 </i>
    <i name="e_fr_energy">   -113.85652750 </i>
    <i name="e_wo_entrp">   -113.85652750 </i>
    <i name="e_0_energy">   -113.85652750 </i>
   </energy>
  </scstep>
  <scstep>
   <time name="diag">    0.54    0.58</time>
   <time name="diis">    2.70    2.72</time>
   <time name="orth">    0.03    0.03</time>
   <time name="total">    5.57    6.00</time>
   <energy>
    <i name="e_fr_energy">   -113.85848215 </i>
    <i name="e_wo_entrp">   -113.85848215 </i>
    <i name="e_0_energy">   -113.85848215 </i>
   </energy>
  </scstep>
  <scstep>
   <time name="diag">    0.55    0.55</time>
   <time name="diis">    3.33    3.57</time>
   <time name="orth">    0.02    0.03</time>
   <time name="total">    7.40    7.71</time>
   <energy>
    <i name="e_fr_energy">   -113.85910940 </i>
    <i name="e_wo_entrp">   -113.85910940 </i>
    <i name="e_0_energy">   -113.85910940 </i>
   </energy>
  </scstep>
  <scstep>
   <time name="diag">    0.52    0.55</time>
   <time name="diis">    2.68    2.73</time>
   <time name="orth">    0.01    0.02</time>
   <time name="total">    5.53    5.63</time>
   <energy>
    <i name="e_fr_energy">   -113.85932998 </i>
    <i name="e_wo_entrp">   -113.85932998 </i>
    <i name="e_0_energy">   -113.85932998 </i>
   </energy>
  </scstep>
  <scstep>
   <time name="diag">    0.35    0.35</time>
   <time name="diis">    2.86    2.86</time>
   <time name="orth">    0.03    0.03</time>
   <time name="total">    5.25    5.25</time>
   <energy>
    <i name="e_fr_energy">   -113.85937222 </i>
    <i name="e_wo_entrp">   -113.85937222 </i>
    <i name="e_0_energy">   -113.85937222 </i>
   </energy>
  </scstep>
  <scstep>
   <time name="diag">    0.57    0.57</time>
   <time name="diis">    1.69    1.69</time>
   <time name="orth">    0.01    0.01</time>
   <time name="total">    4.90    4.90</time>
   <energy>
    <i name="e_fr_energy">   -113.85938279 </i>
    <i name="e_wo_entrp">   -113.85938279 </i>
    <i name="e_0_energy">   -113.85938279 </i>
   </energy>
  </scstep>
  <scstep>
   <time name="diag">    0.23    0.23</time>
   <time name="diis">    0.92    0.92</time>
   <time name="orth">    0.01    0.01</time>
   <time name="total">    2.78    2.78</time>
   <energy>
    <i name="e_fr_energy">   -113.85939535 </i>
    <i name="e_wo_entrp">   -113.85939535 </i>
    <i name="e_0_energy">   -113.85939535 </i>
   </energy>
  </scstep>
  <scstep>
   <time name="diag">    0.24    0.24</time>
   <time name="diis">    0.97    0.97</time>
   <time name="orth">    0.01    0.01</time>
   <time name="total">    2.86    2.86</time>
   <energy>
    <i name="e_fr_energy">   -113.85940868 </i>
    <i name="e_wo_entrp">   -113.85940868 </i>
    <i name="e_0_energy">   -113.85940868 </i>
   </energy>
  </scstep>
  <scstep>
   <time name="diag">    0.24    0.24</time>
   <time name="diis">    0.92    0.92</time>
   <time name="orth">    0.01    0.01</time>
   <time name="total">    2.80    2.80</time>
   <energy>
    <i name="e_fr_energy">   -113.85943070 </i>
    <i name="e_wo_entrp">   -113.85943070 </i>
    <i name="e_0_energy">   -113.85943070 </i>
   </energy>
  </scstep>
  <scstep>
   <time name="diag">    0.11    0.11</time>
   <time name="diis">    0.46    0.46</time>
   <time name="orth">    0.00    0.00</time>
   <time name="total">    1.23    1.24</time>
   <energy>
    <i name="alphaZ">      3.36120243 </i>
    <i name="ewald">   2941.63773951 </i>
    <i name="hartreedc">  -4393.41021795 </i>
    <i name="XCdc">    169.60736663 </i>
    <i name="pawpsdc">   4417.01792879 </i>
    <i name="pawaedc">  -4425.38952496 </i>
    <i name="eentropy">     -0.00000000 </i>
    <i name="bandstr">   -632.48078892 </i>
    <i name="atom">   1805.79685712 </i>
    <i name="e_fr_energy">   -113.85943734 </i>
    <i name="e_wo_entrp">   -113.85943734 </i>
    <i name="e_0_energy">   -113.85943734 </i>
   </energy>
  </scstep>
  <structure>
   <crystal>
    <varray name="basis" >
     <v>      15.00000000       0.00000000       0.00000000 </v>
     <v>       0.00000000      15.00000000       0.00000000 </v>
     <v>       0.00000000       0.00000000      15.00000000 </v>
    </varray>
    <i name="volume">   3375.00000000 </i>
    <varray name="rec_basis" >
     <v>       0.06666667       0.00000000       0.00000000 </v>
     <v>       0.00000000       0.06666667       0.00000000 </v>
     <v>       0.00000000       0.00000000       0.06666667 </v>
    </varray>
   </crystal>
   <varray name="positions" >
    <v>       0.38430584       0.53372757       0.60180710 </v>
    <v>       0.39837086       0.43889038       0.60952349 </v>
    <v>       0.47837481       0.40044255       0.62284117 </v>
    <v>       0.44690333       0.59496989       0.62106052 </v>
    <v>       0.52853782       0.52519202       0.45183355 </v>
    <v>       0.52301332       0.43509650       0.45785758 </v>
    <v>       0.59318034       0.57422525       0.49985641 </v>
    <v>       0.44690628       0.38498144       0.43182783 </v>
    <v>       0.34211634       0.39829652       0.58874452 </v>
    <v>       0.53835050       0.44078679       0.62958421 </v>
    <v>       0.48786419       0.32854743       0.62383985 </v>
    <v>       0.32140492       0.55463804       0.57182708 </v>
    <v>       0.51301785       0.57444415       0.64409275 </v>
    <v>       0.43483005       0.66639504       0.61520991 </v>
    <v>       0.48239337       0.56317054       0.41104396 </v>
    <v>       0.58015143       0.39815598       0.48333293 </v>
    <v>       0.64207411       0.61650550       0.54364735 </v>
    <v>       0.38529189       0.33910619       0.41784335 </v>
   </varray>
  </structure>
  <varray name="forces" >
   <v>       0.02311556       0.17177333      -0.10767993 </v>
   <v>      -0.05356843      -0.07860617      -0.22053003 </v>
   <v>       0.08445034      -0.11163492       0.19587376 </v>
   <v>       0.02860070       0.13709243       0.17048581 </v>
   <v>       0.04827690       0.13335789      -0.20735548 </v>
   <v>       0.14804409      -0.07228959      -0.25532828 </v>
   <v>       0.31152634       0.02977010      -0.38374551 </v>
   <v>       0.30065343      -0.15979063      -0.37567453 </v>
   <v>      -0.20477265      -0.32953296       0.33341479 </v>
   <v>       0.06420095      -0.02783793       0.39830919 </v>
   <v>      -0.09832617      -0.09710103       0.01740211 </v>
   <v>      -0.18854471       0.08324260       0.21514854 </v>
   <v>      -0.27057072       0.23098267       0.26631643 </v>
   <v>       0.03314273      -0.00151301      -0.13714710 </v>
   <v>      -0.36153474       0.14848075       0.17520511 </v>
   <v>      -0.13613696      -0.17423025       0.20728788 </v>
   <v>       0.27464370       0.01551755      -0.08011441 </v>
   <v>      -0.00320038       0.10231917      -0.21186834 </v>
  </varray>
  <varray name="stress" >
   <v>      -0.33090459       0.09275926      -0.26161721 </v>
   <v>       0.09275926      -0.07910643      -0.02571311 </v>
   <v>      -0.26161721      -0.02571311      -0.01931019 </v>
  </varray>
  <energy>
   <i name="e_fr_energy">   -114.15759056 </i>
   <i name="e_wo_entrp">   -114.15759056 </i>
   <i name="e_0_energy">   -114.15759056 </i>
  </energy>
  <time name="totalsc">   54.80   56.22</time>
 </calculation>
 <calculation>
  <scstep>
   <time name="dav">    2.23    2.23</time>
   <time name="total">    4.01    4.01</time>
   <energy>
    <i name="alphaZ">      3.36120243 </i>
    <i name="ewald">   2934.01799155 </i>
    <i name="hartreedc">  -4386.55225772 </i>
    <i name="XCdc">    169.54727934 </i>
    <i name="pawpsdc">   4416.99496222 </i>
    <i name="pawaedc">  -4425.36655198 </i>
    <i name="eentropy">     -0.00000000 </i>
    <i name="bandstr">   -631.66842236 </i>
    <i name="atom">   1805.79685712 </i>
    <i name="e_fr_energy">   -113.86893940 </i>
    <i name="e_wo_entrp">   -113.86893940 </i>
    <i name="e_0_energy">   -113.86893940 </i>
   </energy>
  </scstep>
  <scstep>
   <time name="diag">    0.44    0.44</time>
   <time name="diis">    2.28    2.29</time>
   <time name="orth">    0.01    0.01</time>
   <time name="total">    4.56    4.57</time>
   <energy>
    <i name="e_fr_energy">   -113.87043644 </i>
    <i name="e_wo_entrp">   -113.87043644 </i>
    <i name="e_0_energy">   -113.87043644 </i>
   </energy>
  </scstep>
  <scstep>
   <time name="diag">    0.35    0.35</time>
   <time name="diis">    2.37    2.37</time>
   <time name="orth">    0.01    0.01</time>
   <time name="total">    4.49    4.49</time>
   <energy>
    <i name="e_fr_energy">   -113.87092887 </i>
    <i name="e_wo_entrp">   -113.87092887 </i>
    <i name="e_0_energy">   -113.87092887 </i>
   </energy>
  </scstep>
  <scstep>
   <time name="diag">    0.35    0.35</time>
   <time name="diis">    2.60    2.61</time>
   <time name="orth">    0.01    0.01</time>
   <time name="total">    4.74    4.74</time>
   <energy>
    <i name="e_fr_energy">   -113.87114727 </i>
    <i name="e_wo_entrp">   -113.87114727 </i>
    <i name="e_0_energy">   -113.87114727 </i>
   </energy>
  </scstep>
  <scstep>
   <time name="diag">    0.37    0.37</time>
   <time name="diis">    2.24    2.24</time>
   <time name="orth">    0.01    0.01</time>
   <time name="total">    4.25    4.25</time>
   <energy>
    <i name="e_fr_energy">   -113.87117859 </i>
    <i name="e_wo_entrp">   -113.87117859 </i>
    <i name="e_0_energy">   -113.87117859 </i>
   </energy>
  </scstep>
  <scstep>
   <time name="diag">    0.18    0.18</time>
   <time name="diis">    0.91    0.91</time>
   <time name="orth">    0.01    0.01</time>
   <time name="total">    2.02    2.02</time>
   <energy>
    <i name="e_fr_energy">   -113.87119034 </i>
    <i name="e_wo_entrp">   -113.87119034 </i>
    <i name="e_0_energy">   -113.87119034 </i>
   </energy>
  </scstep>
  <scstep>
   <time name="diag">    0.14    0.14</time>
   <time name="diis">    0.61    0.61</time>
   <time name="orth">    0.00    0.00</time>
   <time name="total">    1.47    1.48</time>
   <energy>
    <i name="alphaZ">      3.36120243 </i>
    <i name="ewald">   2934.01799155 </i>
    <i name="hartreedc">  -4386.10851812 </i>
    <i name="XCdc">    169.52845488 </i>
    <i name="pawpsdc">   4401.70601254 </i>
    <i name="pawaedc">  -4410.06898154 </i>
    <i name="eentropy">     -0.00000000 </i>
    <i name="bandstr">   -632.10421862 </i>
    <i name="atom">   1805.79685712 </i>
    <i name="e_fr_energy">   -113.87119975 </i>
    <i name="e_wo_entrp">   -113.87119975 </i>
    <i name="e_0_energy">   -113.87119975 </i>
   </energy>
  </scstep>
  <structure>
   <crystal>
    <varray name="basis" >
     <v>      15.00000000       0.00000000       0.00000000 </v>
     <v>       0.00000000      15.00000000       0.00000000 </v>
     <v>       0.00000000       0.00000000      15.00000000 </v>
    </varray>
    <i name="volume">   3375.00000000 </i>
    <varray name="rec_basis" >
     <v>       0.06666667       0.00000000       0.00000000 </v>
     <v>       0.00000000       0.06666667       0.00000000 </v>
     <v>       0.00000000       0.00000000       0.06666667 </v>
    </varray>
   </crystal>
   <varray name="positions" >
    <v>       0.38436051       0.53394036       0.60214763 </v>
    <v>       0.39845965       0.43888773       0.60952520 </v>
    <v>       0.47860576       0.40040307       0.62275709 </v>
    <v>       0.44697700       0.59512646       0.62154194 </v>
    <v>       0.52849602       0.52498662       0.45068844 </v>
    <v>       0.52276712       0.43478939       0.45692957 </v>
    <v>       0.59296573       0.57394706       0.49920088 </v>
    <v>       0.44639792       0.38472122       0.43138223 </v>
    <v>       0.34194027       0.39819264       0.58936022 </v>
    <v>       0.53865209       0.44084472       0.62915115 </v>
    <v>       0.48795126       0.32852040       0.62363661 </v>
    <v>       0.32107476       0.55482395       0.57280535 </v>
    <v>       0.51305064       0.57453945       0.64423396 </v>
    <v>       0.43486428       0.66646912       0.61564718 </v>
    <v>       0.48216172       0.56304255       0.41011856 </v>
    <v>       0.57969893       0.39762171       0.48257481 </v>
    <v>       0.64154614       0.61613334       0.54369940 </v>
    <v>       0.38440157       0.33905483       0.41796874 </v>
   </varray>
  </structure>
  <varray name="forces" >
   <v>       0.00252568       0.09261565      -0.10280349 </v>
   <v>       0.01290009      -0.06427513      -0.17719104 </v>
   <v>      -0.00121868      -0.02752238       0.15409300 </v>
   <v>      -0.04109427       0.10149609       0.12520672 </v>
   <v>       0.05229474       0.05990444      -0.15254485 </v>
   <v>       0.12592709      -0.00915110      -0.25960822 </v>
   <v>       0.42403480       0.13365366      -0.26916745 </v>
   <v>       0.20778558      -0.19894661      -0.39021623 </v>
   <v>      -0.16013970      -0.29284844       0.32788609 </v>
   <v>       0.03379404      -0.05420869       0.39064062 </v>
   <v>      -0.08631924      -0.11089650       0.02492151 </v>
   <v>      -0.14505909       0.08167265       0.21169603 </v>
   <v>      -0.21252878       0.21607405       0.27961197 </v>
   <v>       0.02850440       0.03490131      -0.12305883 </v>
   <v>      -0.34031828       0.13697024       0.18047475 </v>
   <v>      -0.13291383      -0.15193112       0.20507339 </v>
   <v>       0.12515400      -0.11954230      -0.23190366 </v>
   <v>       0.10667144       0.17203420      -0.19311031 </v>
  </varray>
  <varray name="stress" >
   <v>      -0.56473895      -0.01438558      -0.34680843 </v>
   <v>      -0.01438558      -0.31921875      -0.08090386 </v>
   <v>      -0.34680843      -0.08090386      -0.10461811 </v>
  </varray>
  <energy>
   <i name="e_fr_energy">   -114.16922920 </i>
   <i name="e_wo_entrp">   -114.16922920 </i>
   <i name="e_0_energy">   -114.16922920 </i>
  </energy>
  <time name="totalsc">   44.83   44.86</time>
 </calculation>
 <calculation>
  <scstep>
   <time name="dav">    2.15    2.15</time>
   <time name="total">    3.92    3.92</time>
   <energy>
    <i name="alphaZ">      3.36120243 </i>
    <i name="ewald">   2922.95078072 </i>
    <i name="hartreedc">  -4375.79166139 </i>
    <i name="XCdc">    169.45040406 </i>
    <i name="pawpsdc">   4401.43920203 </i>
    <i name="pawaedc">  -4409.80212239 </i>
    <i name="eentropy">     -0.00000000 </i>
    <i name="bandstr">   -631.28459460 </i>
    <i name="atom">   1805.79685712 </i>
    <i name="e_fr_energy">   -113.87993200 </i>
    <i name="e_wo_entrp">   -113.87993200 </i>
    <i name="e_0_energy">   -113.87993200 </i>
   </energy>
  </scstep>
  <scstep>
   <time name="diag">    0.92    0.92</time>
   <time name="diis">    4.63    4.63</time>
   <time name="orth">    0.03    0.04</time>
   <time name="total">    8.37    8.38</time>
   <energy>
    <i name="e_fr_energy">   -113.88462222 </i>
    <i name="e_wo_entrp">   -113.88462222 </i>
    <i name="e_0_energy">   -113.88462222 </i>
   </energy>
  </scstep>
  <scstep>
   <time name="diag">    0.89    0.89</time>
   <time name="diis">    4.98    4.98</time>
   <time name="orth">    0.03    0.03</time>
   <time name="total">    9.51    9.52</time>
   <energy>
    <i name="e_fr_energy">   -113.88581784 </i>
    <i name="e_wo_entrp">   -113.88581784 </i>
    <i name="e_0_energy">   -113.88581784 </i>
   </energy>
  </scstep>
  <scstep>
   <time name="diag">    0.89    0.89</time>
   <time name="diis">    4.37    4.37</time>
   <time name="orth">    0.02    0.02</time>
   <time name="total">    8.47    8.47</time>
   <energy>
    <i name="e_fr_energy">   -113.88634013 </i>
    <i name="e_wo_entrp">   -113.88634013 </i>
    <i name="e_0_energy">   -113.88634013 </i>
   </energy>
  </scstep>
  <scstep>
   <time name="diag">    0.25    0.25</time>
   <time name="diis">    1.61    1.61</time>
   <time name="orth">    0.01    0.01</time>
   <time name="total">    3.64    3.64</time>
   <energy>
    <i name="e_fr_energy">   -113.88642517 </i>
    <i name="e_wo_entrp">   -113.88642517 </i>
    <i name="e_0_energy">   -113.88642517 </i>
   </energy>
  </scstep>
  <scstep>
   <time name="diag">    0.24    0.24</time>
   <time name="diis">    1.71    1.71</time>
   <time name="orth">    0.02    0.02</time>
   <time name="total">    3.62    3.63</time>
   <energy>
    <i name="e_fr_energy">   -113.88646145 </i>
    <i name="e_wo_entrp">   -113.88646145 </i>
    <i name="e_0_energy">   -113.88646145 </i>
   </energy>
  </scstep>
  <scstep>
   <time name="diag">    0.34    0.44</time>
   <time name="diis">    1.23    1.46</time>
   <time name="orth">    0.01    0.01</time>
   <time name="total">    3.35    3.77</time>
   <energy>
    <i name="e_fr_energy">   -113.88649013 </i>
    <i name="e_wo_entrp">   -113.88649013 </i>
    <i name="e_0_energy">   -113.88649013 </i>
   </energy>
  </scstep>
  <scstep>
   <time name="diag">    0.24    0.24</time>
   <time name="diis">    1.30    1.30</time>
   <time name="orth">    0.02    0.02</time>
   <time name="total">    3.28    3.44</time>
   <energy>
    <i name="e_fr_energy">   -113.88651159 </i>
    <i name="e_wo_entrp">   -113.88651159 </i>
    <i name="e_0_energy">   -113.88651159 </i>
   </energy>
  </scstep>
  <scstep>
   <time name="diag">    0.24    0.24</time>
   <time name="diis">    1.08    1.11</time>
   <time name="orth">    0.01    0.01</time>
   <time name="total">    3.23    3.27</time>
   <energy>
    <i name="e_fr_energy">   -113.88653553 </i>
    <i name="e_wo_entrp">   -113.88653553 </i>
    <i name="e_0_energy">   -113.88653553 </i>
   </energy>
  </scstep>
  <scstep>
   <time name="diag">    0.32    0.33</time>
   <time name="diis">    1.11    1.15</time>
   <time name="orth">    0.01    0.01</time>
   <time name="total">    3.22    3.27</time>
   <energy>
    <i name="e_fr_energy">   -113.88656628 </i>
    <i name="e_wo_entrp">   -113.88656628 </i>
    <i name="e_0_energy">   -113.88656628 </i>
   </energy>
  </scstep>
  <scstep>
   <time name="diag">    0.36    0.38</time>
   <time name="diis">    1.02    1.10</time>
   <time name="orth">    0.01    0.01</time>
   <time name="total">    3.29    3.52</time>
   <energy>
    <i name="e_fr_energy">   -113.88659237 </i>
    <i name="e_wo_entrp">   -113.88659237 </i>
    <i name="e_0_energy">   -113.88659237 </i>
   </energy>
  </scstep>
  <scstep>
   <time name="diag">    0.47    0.47</time>
   <time name="diis">    1.11    1.11</time>
   <time name="orth">    0.01    0.01</time>
   <time name="total">    3.50    3.50</time>
   <energy>
    <i name="e_fr_energy">   -113.88660623 </i>
    <i name="e_wo_entrp">   -113.88660623 </i>
    <i name="e_0_energy">   -113.88660623 </i>
   </energy>
  </scstep>
  <scstep>
   <time name="diag">    0.38    0.40</time>
   <time name="diis">    0.85    0.85</time>
   <time name="orth">    0.01    0.01</time>
   <time name="total">    2.87    2.90</time>
   <energy>
    <i name="alphaZ">      3.36120243 </i>
    <i name="ewald">   2922.95078072 </i>
    <i name="hartreedc">  -4375.51914087 </i>
    <i name="XCdc">    169.43846619 </i>
    <i name="pawpsdc">   4386.29326725 </i>
    <i name="pawaedc">  -4394.64962172 </i>
    <i name="eentropy">     -0.00000000 </i>
    <i name="bandstr">   -631.55842001 </i>
    <i name="atom">   1805.79685712 </i>
    <i name="e_fr_energy">   -113.88660890 </i>
    <i name="e_wo_entrp">   -113.88660890 </i>
    <i name="e_0_energy">   -113.88660890 </i>
   </energy>
  </scstep>
  <structure>
   <crystal>
    <varray name="basis" >
     <v>      15.00000000       0.00000000       0.00000000 </v>
     <v>       0.00000000      15.00000000       0.00000000 </v>
     <v>       0.00000000       0.00000000      15.00000000 </v>
    </varray>
    <i name="volume">   3375.00000000 </i>
    <varray name="rec_basis" >
     <v>       0.06666667       0.00000000       0.00000000 </v>
     <v>       0.00000000       0.06666667       0.00000000 </v>
     <v>       0.00000000       0.00000000       0.06666667 </v>
    </varray>
   </crystal>
   <varray name="positions" >
    <v>       0.38443925       0.53424717       0.60271033 </v>
    <v>       0.39865338       0.43889142       0.60955016 </v>
    <v>       0.47893652       0.40039321       0.62259237 </v>
    <v>       0.44705363       0.59536941       0.62232396 </v>
    <v>       0.52841962       0.52459542       0.44881288 </v>
    <v>       0.52234061       0.43431223       0.45535058 </v>
    <v>       0.59270944       0.57354995       0.49815100 </v>
    <v>       0.44549864       0.38424986       0.43059556 </v>
    <v>       0.34166942       0.39802794       0.59040981 </v>
    <v>       0.53914170       0.44091890       0.62843935 </v>
    <v>       0.48810358       0.32845859       0.62330101 </v>
    <v>       0.32054662       0.55514017       0.57445609 </v>
    <v>       0.51313308       0.57470382       0.64449204 </v>
    <v>       0.43491983       0.66662133       0.61638982 </v>
    <v>       0.48176452       0.56282690       0.40857915 </v>
    <v>       0.57892804       0.39673530       0.48131637 </v>
    <v>       0.64056570       0.61541205       0.54367189 </v>
    <v>       0.38298140       0.33902326       0.41818353 </v>
   </varray>
  </structure>
  <varray name="forces" >
   <v>      -0.02874680      -0.00369499      -0.09158478 </v>
   <v>       0.03020766      -0.03768445      -0.12517654 </v>
   <v>      -0.05587421       0.02982173       0.10227763 </v>
   <v>      -0.11422856       0.05472357       0.06574664 </v>
   <v>       0.07685083       0.03046015      -0.05989154 </v>
   <v>       0.08441710       0.02466617      -0.25749877 </v>
   <v>       0.27934588       0.01630960      -0.36793901 </v>
   <v>       0.25448532      -0.11161876      -0.36676092 </v>
   <v>      -0.07511293      -0.22726257       0.32215573 </v>
   <v>      -0.01659471      -0.09197794       0.37706727 </v>
   <v>      -0.07550890      -0.09536806       0.03525212 </v>
   <v>      -0.07915818       0.07254396       0.20208417 </v>
   <v>      -0.14833962       0.19837245       0.28967385 </v>
   <v>       0.01838366       0.07760838      -0.10051160 </v>
   <v>      -0.28804970       0.10734644       0.20526076 </v>
   <v>      -0.14032863      -0.10852602       0.19541745 </v>
   <v>       0.16586615      -0.09185354      -0.22446747 </v>
   <v>       0.11238566       0.15613389      -0.20110500 </v>
  </varray>
  <varray name="stress" >
   <v>      -0.78987454      -0.08399726      -0.40418036 </v>
   <v>      -0.08399726      -0.59709393      -0.09888792 </v>
   <v>      -0.40418037      -0.09888792      -0.17787513 </v>
  </varray>
  <energy>
   <i name="e_fr_energy">   -114.18441436 </i>
   <i name="e_wo_entrp">   -114.18441436 </i>
   <i name="e_0_energy">   -114.18441436 </i>
  </energy>
  <time name="totalsc">   70.42   71.84</time>
 </calculation>
 <calculation>
  <scstep>
   <time name="dav">    3.64    3.64</time>
   <time name="total">    6.42    6.56</time>
   <energy>
    <i name="alphaZ">      3.36120243 </i>
    <i name="ewald">   2897.64602341 </i>
    <i name="hartreedc">  -4351.88302272 </i>
    <i name="XCdc">    169.25580999 </i>
    <i name="pawpsdc">   4386.30726104 </i>
    <i name="pawaedc">  -4394.66361698 </i>
    <i name="eentropy">     -0.00000000 </i>
    <i name="bandstr">   -629.68273647 </i>
    <i name="atom">   1805.79685712 </i>
    <i name="e_fr_energy">   -113.86222218 </i>
    <i name="e_wo_entrp">   -113.86222218 </i>
    <i name="e_0_energy">   -113.86222218 </i>
   </energy>
  </scstep>
  <scstep>
   <time name="diag">    0.61    0.64</time>
   <time name="diis">    3.29    3.29</time>
   <time name="orth">    0.01    0.01</time>
   <time name="total">    6.05    6.39</time>
   <energy>
    <i name="e_fr_energy">   -113.89646381 </i>
    <i name="e_wo_entrp">   -113.89646381 </i>
    <i name="e_0_energy">   -113.89646381 </i>
   </energy>
  </scstep>
  <scstep>
   <time name="diag">    0.54    0.55</time>
   <time name="diis">    3.36    3.49</time>
   <time name="orth">    0.01    0.01</time>
   <time name="total">    6.24    6.40</time>
   <energy>
    <i name="e_fr_energy">   -113.90345071 </i>
    <i name="e_wo_entrp">   -113.90345071 </i>
    <i name="e_0_energy">   -113.90345071 </i>
   </energy>
  </scstep>
  <scstep>
   <time name="diag">    0.46    0.46</time>
   <time name="diis">    3.49    3.49</time>
   <time name="orth">    0.01    0.01</time>
   <time name="total">    5.97    6.07</time>
   <energy>
    <i name="e_fr_energy">   -113.90526810 </i>
    <i name="e_wo_entrp">   -113.90526810 </i>
    <i name="e_0_energy">   -113.90526810 </i>
   </energy>
  </scstep>
  <scstep>
   <time name="diag">    1.13    1.17</time>
   <time name="diis">    5.41    5.46</time>
   <time name="orth">    0.04    0.04</time>
   <time name="total">    9.59    9.83</time>
   <energy>
    <i name="e_fr_energy">   -113.90572940 </i>
    <i name="e_wo_entrp">   -113.90572940 </i>
    <i name="e_0_energy">   -113.90572940 </i>
   </energy>
  </scstep>
  <scstep>
   <time name="diag">    0.86    1.04</time>
   <time name="diis">    3.68    3.69</time>
   <time name="orth">    0.02    0.03</time>
   <time name="total">    7.63    7.97</time>
   <energy>
    <i name="e_fr_energy">   -113.90588359 </i>
    <i name="e_wo_entrp">   -113.90588359 </i>
    <i name="e_0_energy">   -113.90588359 </i>
   </energy>
  </scstep>
  <scstep>
   <time name="diag">    0.64    0.66</time>
   <time name="diis">    2.67    2.69</time>
   <time name="orth">    0.02    0.02</time>
   <time name="total">    5.33    5.39</time>
   <energy>
    <i name="e_fr_energy">   -113.90595500 </i>
    <i name="e_wo_entrp">   -113.90595500 </i>
    <i name="e_0_energy">   -113.90595500 </i>
   </energy>
  </scstep>
  <scstep>
   <time name="diag">    0.35    0.35</time>
   <time name="diis">    1.44    1.60</time>
   <time name="orth">    0.01    0.02</time>
   <time name="total">    3.80    4.13</time>
   <energy>
    <i name="e_fr_energy">   -113.90602511 </i>
    <i name="e_wo_entrp">   -113.90602511 </i>
    <i name="e_0_energy">   -113.90602511 </i>
   </energy>
  </scstep>
  <scstep>
   <time name="diag">    0.44    0.44</time>
   <time name="diis">    1.33    1.38</time>
   <time name="orth">    0.01    0.01</time>
   <time name="total">    3.67    3.90</time>
   <energy>
    <i name="e_fr_energy">   -113.90608725 </i>
    <i name="e_wo_entrp">   -113.90608725 </i>
    <i name="e_0_energy">   -113.90608725 </i>
   </energy>
  </scstep>
  <scstep>
   <time name="diag">    0.21    0.23</time>
   <time name="diis">    0.85    0.89</time>
   <time name="orth">    0.01    0.01</time>
   <time name="total">    2.26    2.33</time>
   <energy>
    <i name="e_fr_energy">   -113.90620758 </i>
    <i name="e_wo_entrp">   -113.90620758 </i>
    <i name="e_0_energy">   -113.90620758 </i>
   </energy>
  </scstep>
  <scstep>
   <time name="diag">    0.16    0.16</time>
   <time name="diis">    0.75    0.75</time>
   <time name="orth">    0.01    0.01</time>
   <time name="total">    1.97    1.97</time>
   <energy>
    <i name="e_fr_energy">   -113.90624197 </i>
    <i name="e_wo_entrp">   -113.90624197 </i>
    <i name="e_0_energy">   -113.90624197 </i>
   </energy>
  </scstep>
  <scstep>
   <time name="diag">    0.17    0.17</time>
   <time name="diis">    0.72    0.86</time>
   <time name="orth">    0.01    0.01</time>
   <time name="total">    1.90    2.04</time>
   <energy>
    <i name="e_fr_energy">   -113.90630435 </i>
    <i name="e_wo_entrp">   -113.90630435 </i>
    <i name="e_0_energy">   -113.90630435 </i>
   </energy>
  </scstep>
  <scstep>
   <time name="diag">    0.15    0.15</time>
   <time name="diis">    0.59    0.59</time>
   <time name="orth">    0.01    0.01</time>
   <time name="total">    1.70    1.70</time>
   <energy>
    <i name="e_fr_energy">   -113.90632693 </i>
    <i name="e_wo_entrp">   -113.90632693 </i>
    <i name="e_0_energy">   -113.90632693 </i>
   </energy>
  </scstep>
  <scstep>
   <time name="diag">    0.21    0.21</time>
   <time name="diis">    0.79    0.79</time>
   <time name="orth">    0.01    0.01</time>
   <time name="total">    2.09    2.10</time>
   <energy>
    <i name="e_fr_energy">   -113.90633989 </i>
    <i name="e_wo_entrp">   -113.90633989 </i>
    <i name="e_0_energy">   -113.90633989 </i>
   </energy>
  </scstep>
  <scstep>
   <time name="diag">    0.17    0.17</time>
   <time name="diis">    0.47    0.47</time>
   <time name="orth">    0.00    0.00</time>
   <time name="total">    1.75    1.75</time>
   <energy>
    <i name="alphaZ">      3.36120243 </i>
    <i name="ewald">   2897.64602341 </i>
    <i name="hartreedc">  -4351.26232698 </i>
    <i name="XCdc">    169.22274626 </i>
    <i name="pawpsdc">   4352.55730893 </i>
    <i name="pawaedc">  -4360.89625835 </i>
    <i name="eentropy">     -0.00000000 </i>
    <i name="bandstr">   -630.33190254 </i>
    <i name="atom">   1805.79685712 </i>
    <i name="e_fr_energy">   -113.90634973 </i>
    <i name="e_wo_entrp">   -113.90634973 </i>
    <i name="e_0_energy">   -113.90634973 </i>
   </energy>
  </scstep>
  <structure>
   <crystal>
    <varray name="basis" >
     <v>      15.00000000       0.00000000       0.00000000 </v>
     <v>       0.00000000      15.00000000       0.00000000 </v>
     <v>       0.00000000       0.00000000      15.00000000 </v>
    </varray>
    <i name="volume">   3375.00000000 </i>
    <varray name="rec_basis" >
     <v>       0.06666667       0.00000000       0.00000000 </v>
     <v>       0.00000000       0.06666667       0.00000000 </v>
     <v>       0.00000000       0.00000000       0.06666667 </v>
    </varray>
   </crystal>
   <varray name="positions" >
    <v>       0.38457981       0.53482750       0.60404045 </v>
    <v>       0.39917626       0.43893624       0.60967148 </v>
    <v>       0.47961902       0.40048773       0.62212460 </v>
    <v>       0.44709838       0.59589039       0.62412074 </v>
    <v>       0.52824171       0.52358911       0.44447614 </v>
    <v>       0.52125697       0.43322999       0.45147810 </v>
    <v>       0.59206840       0.57249355       0.49544488 </v>
    <v>       0.44340199       0.38316868       0.42860416 </v>
    <v>       0.34113304       0.39767717       0.59300879 </v>
    <v>       0.54025014       0.44101136       0.62678749 </v>
    <v>       0.48848108       0.32829711       0.62251307 </v>
    <v>       0.31937017       0.55590974       0.57846208 </v>
    <v>       0.51340235       0.57512548       0.64518773 </v>
    <v>       0.43504259       0.66707755       0.61820946 </v>
    <v>       0.48080083       0.56228867       0.40495299 </v>
    <v>       0.57701061       0.39464953       0.47833205 </v>
    <v>       0.63820486       0.61361402       0.54348126 </v>
    <v>       0.37964030       0.33900291       0.41866768 </v>
   </varray>
  </structure>
  <varray name="forces" >
   <v>      -0.10702522      -0.12551387      -0.05481601 </v>
   <v>      -0.07877851       0.00904078      -0.02693218 </v>
   <v>      -0.04142715       0.00523982       0.01654823 </v>
   <v>      -0.16202028      -0.01745975      -0.02487364 </v>
   <v>       0.02528224       0.04493498       0.05234083 </v>
   <v>       0.04080738      -0.01290094      -0.20043142 </v>
   <v>       0.15588934      -0.08608628      -0.38669531 </v>
   <v>       0.26641059       0.03836443      -0.33508193 </v>
   <v>       0.12744564      -0.07810053       0.30043061 </v>
   <v>      -0.11996386      -0.15510834       0.34533393 </v>
   <v>      -0.06916912       0.01121059       0.05522459 </v>
   <v>       0.06101528       0.03099428       0.16555815 </v>
   <v>      -0.09293336       0.17804813       0.27707774 </v>
   <v>      -0.01208569       0.11779248      -0.05011344 </v>
   <v>      -0.13614370       0.01602282       0.28132376 </v>
   <v>      -0.17550536       0.00656023       0.15354026 </v>
   <v>       0.11683152      -0.15308086      -0.35955103 </v>
   <v>       0.20137025       0.17004204      -0.20888314 </v>
  </varray>
  <varray name="stress" >
   <v>      -1.32149541      -0.27613395      -0.56151433 </v>
   <v>      -0.27613395      -1.21545753      -0.16138940 </v>
   <v>      -0.56151433      -0.16138939      -0.38733063 </v>
  </varray>
  <energy>
   <i name="e_fr_energy">   -114.20339159 </i>
   <i name="e_wo_entrp">   -114.20339159 </i>
   <i name="e_0_energy">   -114.20339159 </i>
  </energy>
  <time name="totalsc">   76.49   79.08</time>
 </calculation>
 <calculation>
  <scstep>
   <time name="dav">    3.27    3.27</time>
   <time name="total">    5.77    5.82</time>
   <energy>
    <i name="alphaZ">      3.36120243 </i>
    <i name="ewald">   2901.33028895 </i>
    <i name="hartreedc">  -4354.61414169 </i>
    <i name="XCdc">    169.24985710 </i>
    <i name="pawpsdc">   4352.54580052 </i>
    <i name="pawaedc">  -4360.88475110 </i>
    <i name="eentropy">     -0.00000000 </i>
    <i name="bandstr">   -630.69334562 </i>
    <i name="atom">   1805.79685712 </i>
    <i name="e_fr_energy">   -113.90823230 </i>
    <i name="e_wo_entrp">   -113.90823230 </i>
    <i name="e_0_energy">   -113.90823230 </i>
   </energy>
  </scstep>
  <scstep>
   <time name="diag">    0.34    0.34</time>
   <time name="diis">    3.13    3.13</time>
   <time name="orth">    0.02    0.02</time>
   <time name="total">    5.54    5.78</time>
   <energy>
    <i name="e_fr_energy">   -113.90847689 </i>
    <i name="e_wo_entrp">   -113.90847689 </i>
    <i name="e_0_energy">   -113.90847689 </i>
   </energy>
  </scstep>
  <scstep>
   <time name="diag">    0.71    0.91</time>
   <time name="diis">    2.87    2.94</time>
   <time name="orth">    0.01    0.01</time>
   <time name="total">    5.95    6.50</time>
   <energy>
    <i name="e_fr_energy">   -113.90860157 </i>
    <i name="e_wo_entrp">   -113.90860157 </i>
    <i name="e_0_energy">   -113.90860157 </i>
   </energy>
  </scstep>
  <scstep>
   <time name="diag">    0.43    0.43</time>
   <time name="diis">    2.05    2.07</time>
   <time name="orth">    0.01    0.01</time>
   <time name="total">    4.65    4.68</time>
   <energy>
    <i name="e_fr_energy">   -113.90865584 </i>
    <i name="e_wo_entrp">   -113.90865584 </i>
    <i name="e_0_energy">   -113.90865584 </i>
   </energy>
  </scstep>
  <scstep>
   <time name="diag">    0.23    0.23</time>
   <time name="diis">    1.09    1.09</time>
   <time name="orth">    0.01    0.01</time>
   <time name="total">    2.37    2.46</time>
   <energy>
    <i name="alphaZ">      3.36120243 </i>
    <i name="ewald">   2901.33028895 </i>
    <i name="hartreedc">  -4354.83194425 </i>
    <i name="XCdc">    169.25837635 </i>
    <i name="pawpsdc">   4358.12863666 </i>
    <i name="pawaedc">  -4366.47080571 </i>
    <i name="eentropy">     -0.00000000 </i>
    <i name="bandstr">   -630.48127190 </i>
    <i name="atom">   1805.79685712 </i>
    <i name="e_fr_energy">   -113.90866035 </i>
    <i name="e_wo_entrp">   -113.90866035 </i>
    <i name="e_0_energy">   -113.90866035 </i>
   </energy>
  </scstep>
  <structure>
   <crystal>
    <varray name="basis" >
     <v>      15.00000000       0.00000000       0.00000000 </v>
     <v>       0.00000000      15.00000000       0.00000000 </v>
     <v>       0.00000000       0.00000000      15.00000000 </v>
    </varray>
    <i name="volume">   3375.00000000 </i>
    <varray name="rec_basis" >
     <v>       0.06666667       0.00000000       0.00000000 </v>
     <v>       0.00000000       0.06666667       0.00000000 </v>
     <v>       0.00000000       0.00000000       0.06666667 </v>
    </varray>
   </crystal>
   <varray name="positions" >
    <v>       0.38453351       0.53473417       0.60382460 </v>
    <v>       0.39912098       0.43895923       0.60960602 </v>
    <v>       0.47957057       0.40053326       0.62208793 </v>
    <v>       0.44702653       0.59584527       0.62392901 </v>
    <v>       0.52830169       0.52368834       0.44497578 </v>
    <v>       0.52139727       0.43332354       0.45183592 </v>
    <v>       0.59216979       0.57255840       0.49570226 </v>
    <v>       0.44372687       0.38326690       0.42874575 </v>
    <v>       0.34125745       0.39769619       0.59284875 </v>
    <v>       0.54013798       0.44100703       0.62692587 </v>
    <v>       0.48848330       0.32836028       0.62254018 </v>
    <v>       0.31953351       0.55586305       0.57800868 </v>
    <v>       0.51333386       0.57515553       0.64528569 </v>
    <v>       0.43504353       0.66710074       0.61799223 </v>
    <v>       0.48090589       0.56233258       0.40540250 </v>
    <v>       0.57714532       0.39484673       0.47876122 </v>
    <v>       0.63838083       0.61372450       0.54361190 </v>
    <v>       0.38005953       0.33904005       0.41867408 </v>
   </varray>
  </structure>
  <varray name="forces" >
   <v>      -0.06385474      -0.07841479      -0.04111235 </v>
   <v>      -0.03619405      -0.00268394      -0.02371601 </v>
   <v>      -0.05541738      -0.00985089       0.03088111 </v>
   <v>      -0.13373946       0.00064962      -0.00728608 </v>
   <v>       0.00896370       0.02401618       0.01072635 </v>
   <v>       0.06961652       0.00960988      -0.19104104 </v>
   <v>       0.17605917      -0.06513492      -0.35870368 </v>
   <v>       0.25941586       0.03101640      -0.33423909 </v>
   <v>       0.07885868      -0.10863110       0.29017322 </v>
   <v>      -0.09442813      -0.13399819       0.34474418 </v>
   <v>      -0.07286385       0.00498643       0.05350512 </v>
   <v>       0.01788527       0.03722160       0.15553986 </v>
   <v>      -0.12361399       0.18137456       0.26549200 </v>
   <v>      -0.01367362       0.08855127      -0.05437808 </v>
   <v>      -0.14720128       0.02542757       0.27274625 </v>
   <v>      -0.16276919      -0.00695525       0.15241768 </v>
   <v>       0.12900812      -0.14326744      -0.34793560 </v>
   <v>       0.16394837       0.14608302      -0.21781385 </v>
  </varray>
  <varray name="stress" >
   <v>      -1.21077991      -0.22496151      -0.52700955 </v>
   <v>      -0.22496151      -1.13595585      -0.14512295 </v>
   <v>      -0.52700955      -0.14512296      -0.35432845 </v>
  </varray>
  <energy>
   <i name="e_fr_energy">   -114.20586200 </i>
   <i name="e_wo_entrp">   -114.20586200 </i>
   <i name="e_0_energy">   -114.20586200 </i>
  </energy>
  <time name="totalsc">   37.09   38.27</time>
 </calculation>
 <calculation>
  <scstep>
   <time name="dav">    2.17    2.17</time>
   <time name="total">    3.99    3.99</time>
   <energy>
    <i name="alphaZ">      3.36120243 </i>
    <i name="ewald">   2904.08978806 </i>
    <i name="hartreedc">  -4357.34455997 </i>
    <i name="XCdc">    169.27585530 </i>
    <i name="pawpsdc">   4358.36730163 </i>
    <i name="pawaedc">  -4366.70942855 </i>
    <i name="eentropy">     -0.00000000 </i>
    <i name="bandstr">   -630.75119696 </i>
    <i name="atom">   1805.79685712 </i>
    <i name="e_fr_energy">   -113.91418094 </i>
    <i name="e_wo_entrp">   -113.91418094 </i>
    <i name="e_0_energy">   -113.91418094 </i>
   </energy>
  </scstep>
  <scstep>
   <time name="diag">    0.34    0.34</time>
   <time name="diis">    2.23    2.23</time>
   <time name="orth">    0.01    0.01</time>
   <time name="total">    4.25    4.25</time>
   <energy>
    <i name="e_fr_energy">   -113.91447930 </i>
    <i name="e_wo_entrp">   -113.91447930 </i>
    <i name="e_0_energy">   -113.91447930 </i>
   </energy>
  </scstep>
  <scstep>
   <time name="diag">    0.34    0.34</time>
   <time name="diis">    2.90    2.90</time>
   <time name="orth">    0.01    0.01</time>
   <time name="total">    4.90    4.90</time>
   <energy>
    <i name="e_fr_energy">   -113.91460045 </i>
    <i name="e_wo_entrp">   -113.91460045 </i>
    <i name="e_0_energy">   -113.91460045 </i>
   </energy>
  </scstep>
  <scstep>
   <time name="diag">    0.36    0.36</time>
   <time name="diis">    2.29    2.29</time>
   <time name="orth">    0.01    0.01</time>
   <time name="total">    4.36    4.36</time>
   <energy>
    <i name="e_fr_energy">   -113.91465820 </i>
    <i name="e_wo_entrp">   -113.91465820 </i>
    <i name="e_0_energy">   -113.91465820 </i>
   </energy>
  </scstep>
  <scstep>
   <time name="diag">    0.36    0.36</time>
   <time name="diis">    1.48    1.48</time>
   <time name="orth">    0.01    0.01</time>
   <time name="total">    3.25    3.25</time>
   <energy>
    <i name="alphaZ">      3.36120243 </i>
    <i name="ewald">   2904.08978806 </i>
    <i name="hartreedc">  -4357.52280221 </i>
    <i name="XCdc">    169.28122687 </i>
    <i name="pawpsdc">   4362.42800114 </i>
    <i name="pawaedc">  -4370.77214994 </i>
    <i name="eentropy">     -0.00000000 </i>
    <i name="bandstr">   -630.57678919 </i>
    <i name="atom">   1805.79685712 </i>
    <i name="e_fr_energy">   -113.91466573 </i>
    <i name="e_wo_entrp">   -113.91466573 </i>
    <i name="e_0_energy">   -113.91466573 </i>
   </energy>
  </scstep>
  <structure>
   <crystal>
    <varray name="basis" >
     <v>      15.00000000       0.00000000       0.00000000 </v>
     <v>       0.00000000      15.00000000       0.00000000 </v>
     <v>       0.00000000       0.00000000      15.00000000 </v>
    </varray>
    <i name="volume">   3375.00000000 </i>
    <varray name="rec_basis" >
     <v>       0.06666667       0.00000000       0.00000000 </v>
     <v>       0.00000000       0.06666667       0.00000000 </v>
     <v>       0.00000000       0.00000000       0.06666667 </v>
    </varray>
   </crystal>
   <varray name="positions" >
    <v>       0.38451603       0.53471269       0.60356395 </v>
    <v>       0.39916162       0.43901249       0.60944389 </v>
    <v>       0.47959290       0.40064773       0.62189591 </v>
    <v>       0.44689214       0.59588807       0.62387419 </v>
    <v>       0.52840144       0.52369087       0.44522076 </v>
    <v>       0.52158794       0.43334956       0.45190176 </v>
    <v>       0.59233956       0.57251823       0.49581145 </v>
    <v>       0.44412509       0.38325879       0.42864919 </v>
    <v>       0.34138397       0.39759785       0.59303343 </v>
    <v>       0.54014740       0.44106213       0.62690660 </v>
    <v>       0.48857665       0.32849403       0.62241259 </v>
    <v>       0.31961876       0.55593633       0.57770099 </v>
    <v>       0.51313571       0.57536040       0.64572906 </v>
    <v>       0.43507585       0.66722526       0.61781411 </v>
    <v>       0.48094087       0.56234178       0.40576375 </v>
    <v>       0.57706933       0.39485470       0.47924166 </v>
    <v>       0.63831676       0.61360814       0.54397252 </v>
    <v>       0.38034791       0.33909610       0.41879780 </v>
   </varray>
  </structure>
  <varray name="forces" >
   <v>      -0.04406487      -0.03962874      -0.02278216 </v>
   <v>      -0.04385306      -0.00984444      -0.00399632 </v>
   <v>      -0.02826562      -0.02730900       0.05427777 </v>
   <v>      -0.10392607       0.02858716       0.00597235 </v>
   <v>       0.01458285       0.03192955      -0.02062599 </v>
   <v>       0.09273685       0.01104827      -0.17345164 </v>
   <v>       0.14630671      -0.07227729      -0.33660690 </v>
   <v>       0.16253323      -0.00926016      -0.33291924 </v>
   <v>       0.05246213      -0.11370011       0.26817159 </v>
   <v>      -0.08455812      -0.11919816       0.33517053 </v>
   <v>      -0.07861826      -0.00201545       0.05565379 </v>
   <v>      -0.00293047       0.03138439       0.13751933 </v>
   <v>      -0.14211284       0.17309471       0.24736082 </v>
   <v>      -0.02515287       0.05501338      -0.05379153 </v>
   <v>      -0.14713778       0.02846039       0.26088079 </v>
   <v>      -0.13355278      -0.00844743       0.14088083 </v>
   <v>       0.16367434      -0.12079569      -0.33562052 </v>
   <v>       0.20187663       0.16295861      -0.22609351 </v>
  </varray>
  <varray name="stress" >
   <v>      -1.12937298      -0.20722762      -0.49748871 </v>
   <v>      -0.20722762      -1.09850597      -0.13432913 </v>
   <v>      -0.49748871      -0.13432913      -0.31815231 </v>
  </varray>
  <energy>
   <i name="e_fr_energy">   -114.21209058 </i>
   <i name="e_wo_entrp">   -114.21209058 </i>
   <i name="e_0_energy">   -114.21209058 </i>
  </energy>
  <time name="totalsc">   43.57   43.98</time>
 </calculation>
 <calculation>
  <scstep>
   <time name="dav">    3.04    3.13</time>
   <time name="total">    5.32    5.59</time>
   <energy>
    <i name="alphaZ">      3.36120243 </i>
    <i name="ewald">   2906.82020481 </i>
    <i name="hartreedc">  -4359.96779668 </i>
    <i name="XCdc">    169.29748527 </i>
    <i name="pawpsdc">   4362.77387082 </i>
    <i name="pawaedc">  -4371.11799056 </i>
    <i name="eentropy">     -0.00000000 </i>
    <i name="bandstr">   -630.88533870 </i>
    <i name="atom">   1805.79685712 </i>
    <i name="e_fr_energy">   -113.92150550 </i>
    <i name="e_wo_entrp">   -113.92150550 </i>
    <i name="e_0_energy">   -113.92150550 </i>
   </energy>
  </scstep>
  <scstep>
   <time name="diag">    0.48    0.48</time>
   <time name="diis">    4.17    4.23</time>
   <time name="orth">    0.02    0.05</time>
   <time name="total">    7.22    7.43</time>
   <energy>
    <i name="e_fr_energy">   -113.92234310 </i>
    <i name="e_wo_entrp">   -113.92234310 </i>
    <i name="e_0_energy">   -113.92234310 </i>
   </energy>
  </scstep>
  <scstep>
   <time name="diag">    0.84    1.02</time>
   <time name="diis">    2.87    3.10</time>
[...]
   <v>       0.01015183      -0.00106434      -0.00574485 </v>
   <v>       0.00440737       0.00277246      -0.00994861 </v>
   <v>      -0.00696650      -0.00197774       0.01880711 </v>
   <v>      -0.00166354      -0.00265258       0.00538068 </v>
   <v>      -0.00574246      -0.00106780       0.01645241 </v>
   <v>      -0.00603630      -0.00461481       0.00784654 </v>
   <v>      -0.00383848       0.00162494      -0.00000236 </v>
   <v>      -0.00791843      -0.00244984      -0.00280245 </v>
   <v>       0.00662045       0.00427221       0.00040739 </v>
   <v>       0.00304278       0.00060944      -0.00463548 </v>
   <v>       0.01391160       0.00169768      -0.02222952 </v>
   <v>       0.00497272       0.01000098      -0.02356640 </v>
  </varray>
  <varray name="stress" >
   <v>      -1.09743305       0.02465201      -0.01273864 </v>
   <v>       0.02465201      -1.15523467      -0.02771017 </v>
   <v>      -0.01273864      -0.02771017      -1.15951465 </v>
  </varray>
  <energy>
   <i name="e_fr_energy">   -114.68915150 </i>
   <i name="e_wo_entrp">   -114.68915150 </i>
   <i name="e_0_energy">   -114.68915150 </i>
  </energy>
  <time name="totalsc">   32.87   34.01</time>
 </calculation>
 <calculation>
  <scstep>
   <time name="dav">    3.10    3.27</time>
   <time name="total">    5.27    5.74</time>
   <energy>
    <i name="alphaZ">      3.36120243 </i>
    <i name="ewald">   2651.05307235 </i>
    <i name="hartreedc">  -4103.37623367 </i>
    <i name="XCdc">    169.02505781 </i>
    <i name="pawpsdc">   4383.47376004 </i>
    <i name="pawaedc">  -4391.82124015 </i>
    <i name="eentropy">     -0.00000000 </i>
    <i name="bandstr">   -631.93780692 </i>
    <i name="atom">   1805.79685712 </i>
    <i name="e_fr_energy">   -114.42533099 </i>
    <i name="e_wo_entrp">   -114.42533099 </i>
    <i name="e_0_energy">   -114.42533099 </i>
   </energy>
  </scstep>
  <scstep>
   <time name="diag">    0.56    0.56</time>
   <time name="diis">    2.30    2.30</time>
   <time name="orth">    0.02    0.02</time>
   <time name="total">    4.71    4.74</time>
   <energy>
    <i name="alphaZ">      3.36120243 </i>
    <i name="ewald">   2651.05307235 </i>
    <i name="hartreedc">  -4103.37670937 </i>
    <i name="XCdc">    169.02510353 </i>
    <i name="pawpsdc">   4383.48714602 </i>
    <i name="pawaedc">  -4391.83463968 </i>
    <i name="eentropy">     -0.00000000 </i>
    <i name="bandstr">   -631.93736406 </i>
    <i name="atom">   1805.79685712 </i>
    <i name="e_fr_energy">   -114.42533167 </i>
    <i name="e_wo_entrp">   -114.42533167 </i>
    <i name="e_0_energy">   -114.42533167 </i>
   </energy>
  </scstep>
  <structure>
   <crystal>
    <varray name="basis" >
     <v>      15.00000000       0.00000000       0.00000000 </v>
     <v>       0.00000000      15.00000000       0.00000000 </v>
     <v>       0.00000000       0.00000000      15.00000000 </v>
    </varray>
    <i name="volume">   3375.00000000 </i>
    <varray name="rec_basis" >
     <v>       0.06666667       0.00000000       0.00000000 </v>
     <v>       0.00000000       0.06666667       0.00000000 </v>
     <v>       0.00000000       0.00000000       0.06666667 </v>
    </varray>
   </crystal>
   <varray name="positions" >
    <v>       0.38079655       0.53282083       0.60968405 </v>
    <v>       0.39535159       0.43694709       0.61943580 </v>
    <v>       0.47185347       0.39634898       0.64296983 </v>
    <v>       0.43951278       0.59824693       0.62780510 </v>
    <v>       0.53244597       0.52549450       0.44193158 </v>
    <v>       0.52841831       0.43529959       0.44284127 </v>
    <v>       0.60536008       0.57251510       0.47939480 </v>
    <v>       0.45443969       0.38745442       0.40860944 </v>
    <v>       0.33798176       0.39487204       0.60328285 </v>
    <v>       0.53236835       0.43355704       0.65917144 </v>
    <v>       0.47586887       0.32388368       0.64731307 </v>
    <v>       0.31518379       0.55190414       0.58402841 </v>
    <v>       0.50597410       0.58502605       0.65445080 </v>
    <v>       0.42231757       0.66811738       0.61734545 </v>
    <v>       0.47832434       0.56524631       0.41386818 </v>
    <v>       0.58242918       0.39572787       0.47143521 </v>
    <v>       0.66454602       0.61204355       0.51149015 </v>
    <v>       0.39376549       0.34635928       0.38173002 </v>
   </varray>
  </structure>
  <varray name="forces" >
   <v>      -0.00456078      -0.00361845       0.00400340 </v>
   <v>      -0.00458502      -0.00290473       0.00977358 </v>
   <v>      -0.00402017      -0.00180740       0.00906845 </v>
   <v>      -0.00508444      -0.00204833      -0.00082479 </v>
   <v>       0.00461810       0.00080437       0.00029459 </v>
   <v>       0.00253874       0.00084998      -0.00283517 </v>
   <v>       0.00794509      -0.00181819      -0.00601000 </v>
   <v>       0.00413101       0.00323629      -0.00892206 </v>
   <v>      -0.00727824      -0.00229601       0.01877766 </v>
   <v>      -0.00204036      -0.00278622       0.00510174 </v>
   <v>      -0.00597179      -0.00139158       0.01658036 </v>
   <v>      -0.00619921      -0.00476585       0.00750167 </v>
   <v>      -0.00427429       0.00155108      -0.00025382 </v>
   <v>      -0.00809220      -0.00249119      -0.00310995 </v>
   <v>       0.00636806       0.00430145       0.00029313 </v>
   <v>       0.00274973       0.00056458      -0.00469138 </v>
   <v>       0.01704974       0.00365001      -0.02082139 </v>
   <v>       0.00670607       0.01097019      -0.02392602 </v>
  </varray>
  <varray name="stress" >
   <v>      -1.09725498       0.02495862      -0.01235640 </v>
   <v>       0.02495862      -1.15447203      -0.02787266 </v>
   <v>      -0.01235640      -0.02787266      -1.15885059 </v>
  </varray>
  <energy>
   <i name="e_fr_energy">   -114.68916216 </i>
   <i name="e_wo_entrp">   -114.68916216 </i>
   <i name="e_0_energy">   -114.68916216 </i>
  </energy>
  <time name="totalsc">   22.75   23.58</time>
 </calculation>
 <calculation>
  <scstep>
   <time name="dav">    3.04    3.07</time>
   <time name="total">    5.36    5.44</time>
   <energy>
    <i name="alphaZ">      3.36120243 </i>
    <i name="ewald">   2650.97954400 </i>
    <i name="hartreedc">  -4103.30476329 </i>
    <i name="XCdc">    169.02497667 </i>
    <i name="pawpsdc">   4383.49529372 </i>
    <i name="pawaedc">  -4391.84279884 </i>
    <i name="eentropy">     -0.00000000 </i>
    <i name="bandstr">   -631.93568635 </i>
    <i name="atom">   1805.79685712 </i>
    <i name="e_fr_energy">   -114.42537453 </i>
    <i name="e_wo_entrp">   -114.42537453 </i>
    <i name="e_0_energy">   -114.42537453 </i>
   </energy>
  </scstep>
  <scstep>
   <time name="diag">    0.49    0.53</time>
   <time name="diis">    1.69    1.69</time>
   <time name="orth">    0.02    0.02</time>
   <time name="total">    3.84    4.28</time>
   <energy>
    <i name="alphaZ">      3.36120243 </i>
    <i name="ewald">   2650.97954400 </i>
    <i name="hartreedc">  -4103.30370707 </i>
    <i name="XCdc">    169.02495507 </i>
    <i name="pawpsdc">   4383.49558404 </i>
    <i name="pawaedc">  -4391.84308375 </i>
    <i name="eentropy">     -0.00000000 </i>
    <i name="bandstr">   -631.93672743 </i>
    <i name="atom">   1805.79685712 </i>
    <i name="e_fr_energy">   -114.42537560 </i>
    <i name="e_wo_entrp">   -114.42537560 </i>
    <i name="e_0_energy">   -114.42537560 </i>
   </energy>
  </scstep>
  <structure>
   <crystal>
    <varray name="basis" >
     <v>      15.00000000       0.00000000       0.00000000 </v>
     <v>       0.00000000      15.00000000       0.00000000 </v>
     <v>       0.00000000       0.00000000      15.00000000 </v>
    </varray>
    <i name="volume">   3375.00000000 </i>
    <varray name="rec_basis" >
     <v>       0.06666667       0.00000000       0.00000000 </v>
     <v>       0.00000000       0.06666667       0.00000000 </v>
     <v>       0.00000000       0.00000000       0.06666667 </v>
    </varray>
   </crystal>
   <varray name="positions" >
    <v>       0.38079364       0.53281872       0.60968589 </v>
    <v>       0.39534864       0.43694540       0.61944126 </v>
    <v>       0.47185069       0.39634784       0.64297533 </v>
    <v>       0.43950948       0.59824583       0.62780427 </v>
    <v>       0.53244962       0.52549533       0.44193284 </v>
    <v>       0.52842104       0.43530042       0.44284084 </v>
    <v>       0.60536559       0.57251493       0.47939225 </v>
    <v>       0.45444369       0.38745666       0.40860456 </v>
    <v>       0.33797741       0.39487055       0.60329316 </v>
    <v>       0.53236656       0.43355557       0.65917463 </v>
    <v>       0.47586488       0.32388275       0.64732297 </v>
    <v>       0.31518010       0.55190118       0.58403171 </v>
    <v>       0.50597106       0.58502692       0.65445069 </v>
    <v>       0.42231257       0.66811592       0.61734304 </v>
    <v>       0.47832896       0.56524894       0.41386935 </v>
    <v>       0.58243184       0.39572850       0.47143416 </v>
    <v>       0.66455624       0.61204646       0.51147910 </v>
    <v>       0.39377116       0.34636580       0.38171604 </v>
   </varray>
  </structure>
  <varray name="forces" >
   <v>      -0.00423399      -0.00338420       0.00410420 </v>
   <v>      -0.00426719      -0.00263082       0.00964150 </v>
   <v>      -0.00357914      -0.00178540       0.00916613 </v>
   <v>      -0.00456069      -0.00164415      -0.00075530 </v>
   <v>       0.00414273       0.00084031      -0.00020591 </v>
   <v>       0.00231802       0.00099421      -0.00311469 </v>
   <v>       0.00970162      -0.00062218      -0.00518458 </v>
   <v>       0.00413704       0.00329307      -0.00889509 </v>
   <v>      -0.00714199      -0.00232142       0.01864305 </v>
   <v>      -0.00195255      -0.00270495       0.00503667 </v>
   <v>      -0.00584041      -0.00134696       0.01646819 </v>
   <v>      -0.00603971      -0.00471584       0.00740346 </v>
   <v>      -0.00415132       0.00158279      -0.00032944 </v>
   <v>      -0.00785655      -0.00263676      -0.00312567 </v>
   <v>       0.00647407       0.00423118       0.00029004 </v>
   <v>       0.00283537       0.00051502      -0.00471130 </v>
   <v>       0.01443040       0.00216333      -0.02128975 </v>
   <v>       0.00558429       0.01017276      -0.02314152 </v>
  </varray>
  <varray name="stress" >
   <v>      -1.09798570       0.02478142      -0.01259235 </v>
   <v>       0.02478142      -1.15501869      -0.02786979 </v>
   <v>      -0.01259235      -0.02786979      -1.15951106 </v>
  </varray>
  <energy>
   <i name="e_fr_energy">   -114.68919085 </i>
   <i name="e_wo_entrp">   -114.68919085 </i>
   <i name="e_0_energy">   -114.68919085 </i>
  </energy>
  <time name="totalsc">   19.67   20.87</time>
 </calculation>
 <calculation>
  <scstep>
   <time name="dav">    3.00    3.28</time>
   <time name="total">    5.45    5.76</time>
   <energy>
    <i name="alphaZ">      3.36120243 </i>
    <i name="ewald">   2650.34297627 </i>
    <i name="hartreedc">  -4102.66621825 </i>
    <i name="XCdc">    169.02435457 </i>
    <i name="pawpsdc">   4383.48846143 </i>
    <i name="pawaedc">  -4391.83595127 </i>
    <i name="eentropy">     -0.00000000 </i>
    <i name="bandstr">   -631.93737197 </i>
    <i name="atom">   1805.79685712 </i>
    <i name="e_fr_energy">   -114.42568968 </i>
    <i name="e_wo_entrp">   -114.42568968 </i>
    <i name="e_0_energy">   -114.42568968 </i>
   </energy>
  </scstep>
  <scstep>
   <time name="diag">    0.53    0.53</time>
   <time name="diis">    3.97    4.21</time>
   <time name="orth">    0.02    0.02</time>
   <time name="total">    6.65    6.89</time>
   <energy>
    <i name="e_fr_energy">   -114.42573071 </i>
    <i name="e_wo_entrp">   -114.42573071 </i>
    <i name="e_0_energy">   -114.42573071 </i>
   </energy>
  </scstep>
  <scstep>
   <time name="diag">    0.37    0.37</time>
   <time name="diis">    2.81    2.82</time>
   <time name="orth">    0.01    0.01</time>
   <time name="total">    5.26    5.32</time>
   <energy>
    <i name="e_fr_energy">   -114.42574523 </i>
    <i name="e_wo_entrp">   -114.42574523 </i>
    <i name="e_0_energy">   -114.42574523 </i>
   </energy>
  </scstep>
  <scstep>
   <time name="diag">    0.32    0.32</time>
   <time name="diis">    1.47    1.48</time>
   <time name="orth">    0.01    0.01</time>
   <time name="total">    3.53    3.55</time>
   <energy>
    <i name="alphaZ">      3.36120243 </i>
    <i name="ewald">   2650.34297627 </i>
    <i name="hartreedc">  -4102.66278324 </i>
    <i name="XCdc">    169.02468769 </i>
    <i name="pawpsdc">   4383.60098300 </i>
    <i name="pawaedc">  -4391.94849928 </i>
    <i name="eentropy">     -0.00000000 </i>
    <i name="bandstr">   -631.94117202 </i>
    <i name="atom">   1805.79685712 </i>
    <i name="e_fr_energy">   -114.42574804 </i>
    <i name="e_wo_entrp">   -114.42574804 </i>
    <i name="e_0_energy">   -114.42574804 </i>
   </energy>
  </scstep>
  <structure>
   <crystal>
    <varray name="basis" >
     <v>      15.00000000       0.00000000       0.00000000 </v>
     <v>       0.00000000      15.00000000       0.00000000 </v>
     <v>       0.00000000       0.00000000      15.00000000 </v>
    </varray>
    <i name="volume">   3375.00000000 </i>
    <varray name="rec_basis" >
     <v>       0.06666667       0.00000000       0.00000000 </v>
     <v>       0.00000000       0.06666667       0.00000000 </v>
     <v>       0.00000000       0.00000000       0.06666667 </v>
    </varray>
   </crystal>
   <varray name="positions" >
    <v>       0.38077227       0.53280043       0.60970831 </v>
    <v>       0.39532706       0.43693129       0.61949219 </v>
    <v>       0.47183324       0.39633960       0.64302244 </v>
    <v>       0.43948636       0.59823597       0.62780149 </v>
    <v>       0.53246874       0.52549876       0.44192772 </v>
    <v>       0.52842916       0.43530483       0.44281937 </v>
    <v>       0.60541120       0.57250649       0.47936321 </v>
    <v>       0.45446000       0.38747182       0.40855900 </v>
    <v>       0.33794001       0.39485929       0.60339322 </v>
    <v>       0.53235869       0.43354058       0.65920197 </v>
    <v>       0.47583663       0.32387718       0.64740895 </v>
    <v>       0.31514920       0.55187731       0.58407377 </v>
    <v>       0.50595082       0.58503568       0.65444973 </v>
    <v>       0.42227269       0.66810200       0.61732831 </v>
    <v>       0.47836068       0.56527142       0.41386552 </v>
    <v>       0.58244372       0.39573192       0.47140197 </v>
    <v>       0.66463342       0.61205677       0.51136641 </v>
    <v>       0.39379587       0.34641886       0.38159663 </v>
   </varray>
  </structure>
  <varray name="forces" >
   <v>      -0.00471070      -0.00237724       0.00507924 </v>
   <v>      -0.00434217      -0.00197392       0.01038556 </v>
   <v>      -0.00425947      -0.00270415       0.01010169 </v>
   <v>      -0.00549588      -0.00012794      -0.00054698 </v>
   <v>       0.00625308       0.00218067       0.00024216 </v>
   <v>       0.00425401       0.00117702      -0.00207787 </v>
   <v>       0.00737007      -0.00133957      -0.00907992 </v>
   <v>       0.00458058       0.00524357      -0.01080221 </v>
   <v>      -0.00647487      -0.00290651       0.01797186 </v>
   <v>      -0.00234279      -0.00215641       0.00432467 </v>
   <v>      -0.00572740      -0.00199366       0.01620312 </v>
   <v>      -0.00592051      -0.00488795       0.00690310 </v>
   <v>      -0.00396036       0.00121514      -0.00068401 </v>
   <v>      -0.00729195      -0.00327964      -0.00286691 </v>
   <v>       0.00625234       0.00372982       0.00074735 </v>
   <v>       0.00291017      -0.00027732      -0.00423556 </v>
   <v>       0.01454706       0.00200588      -0.01917895 </v>
   <v>       0.00435878       0.00847219      -0.02248636 </v>
  </varray>
  <varray name="stress" >
   <v>      -1.09875693       0.02471348      -0.01184618 </v>
   <v>       0.02471348      -1.15347990      -0.02778530 </v>
   <v>      -0.01184618      -0.02778530      -1.16094900 </v>
  </varray>
  <energy>
   <i name="e_fr_energy">   -114.68942332 </i>
   <i name="e_wo_entrp">   -114.68942332 </i>
   <i name="e_0_energy">   -114.68942332 </i>
  </energy>
  <time name="totalsc">   32.47   33.93</time>
  <eigenvalues>
   <array>
    <dimension dim="1">band</dimension>
    <dimension dim="2">kpoint</dimension>
    <dimension dim="3">spin</dimension>
    <field>eigene</field>
    <field>occ</field>
    <set>
     <set comment="spin 1">
      <set comment="kpoint 1">
       <r>  -22.9744    1.0000 </r>
       <r>  -22.8252    1.0000 </r>
       <r>  -20.9904    1.0000 </r>
       <r>  -20.1191    1.0000 </r>
       <r>  -18.1685    1.0000 </r>
       <r>  -17.7015    1.0000 </r>
       <r>  -15.4831    1.0000 </r>
       <r>  -13.9366    1.0000 </r>
       <r>  -13.4538    1.0000 </r>
       <r>  -13.0584    1.0000 </r>
       <r>  -12.2080    1.0000 </r>
       <r>  -11.1916    1.0000 </r>
       <r>  -10.8923    1.0000 </r>
       <r>  -10.2690    1.0000 </r>
       <r>  -10.1775    1.0000 </r>
       <r>   -9.1387    1.0000 </r>
       <r>   -8.9277    1.0000 </r>
       <r>   -8.7782    1.0000 </r>
       <r>   -8.7666    1.0000 </r>
       <r>   -8.5928    1.0000 </r>
       <r>   -8.5699    1.0000 </r>
       <r>   -8.4141    1.0000 </r>
       <r>   -8.1573    1.0000 </r>
       <r>   -7.1631    1.0000 </r>
       <r>   -6.0126    1.0000 </r>
       <r>   -3.5210    0.0000 </r>
       <r>   -2.4153    0.0000 </r>
       <r>   -1.0508    0.0000 </r>
       <r>   -0.8397    0.0000 </r>
       <r>   -0.3416    0.0000 </r>
       <r>   -0.1091    0.0000 </r>
       <r>    0.0917    0.0000 </r>
       <r>    0.2484    0.0000 </r>
       <r>    0.4129    0.0000 </r>
       <r>    0.4999    0.0000 </r>
      </set>
     </set>
    </set>
   </array>
  </eigenvalues>
  <separator name="orbital magnetization" >
   <v name="MAGDIPOLOUT">      0.00000000      0.00000000      0.00000000</v>
  </separator>
 </calculation>
 <structure name="finalpos" >
  <crystal>
   <varray name="basis" >
    <v>      15.00000000       0.00000000       0.00000000 </v>
    <v>       0.00000000      15.00000000       0.00000000 </v>
    <v>       0.00000000       0.00000000      15.00000000 </v>
   </varray>
   <i name="volume">   3375.00000000 </i>
   <varray name="rec_basis" >
    <v>       0.06666667       0.00000000       0.00000000 </v>
    <v>       0.00000000       0.06666667       0.00000000 </v>
    <v>       0.00000000       0.00000000       0.06666667 </v>
   </varray>
  </crystal>
  <varray name="positions" >
   <v>       0.38077227       0.53280043       0.60970831 </v>
   <v>       0.39532706       0.43693129       0.61949219 </v>
   <v>       0.47183324       0.39633960       0.64302244 </v>
   <v>       0.43948636       0.59823597       0.62780149 </v>
   <v>       0.53246874       0.52549876       0.44192772 </v>
   <v>       0.52842916       0.43530483       0.44281937 </v>
   <v>       0.60541120       0.57250649       0.47936321 </v>
   <v>       0.45446000       0.38747182       0.40855900 </v>
   <v>       0.33794001       0.39485929       0.60339322 </v>
   <v>       0.53235869       0.43354058       0.65920197 </v>
   <v>       0.47583663       0.32387718       0.64740895 </v>
   <v>       0.31514920       0.55187731       0.58407377 </v>
   <v>       0.50595082       0.58503568       0.65444973 </v>
   <v>       0.42227269       0.66810200       0.61732831 </v>
   <v>       0.47836068       0.56527142       0.41386552 </v>
   <v>       0.58244372       0.39573192       0.47140197 </v>
   <v>       0.66463342       0.61205677       0.51136641 </v>
   <v>       0.39379587       0.34641886       0.38159663 </v>
  </varray>
 </structure>
</modeling>
