   17   17 5000    1
  0.2149333E+03  0.1540225E-08  0.1540225E-08  0.1540225E-08  0.1000000E-15
  1.000000000000000E-004
  CAR 
 unknown system                          
     42      1     30
 
  0.0000000E+00  0.0000000E+00  0.0000000E+00  0.1000000E+01
      1        -22.282776   1.000000
      2        -21.200514   1.000000
      3        -19.095487   1.000000
      4        -18.716716   1.000000
      5        -15.995077   1.000000
      6        -15.452780   1.000000
      7        -13.097398   1.000000
      8        -13.022624   1.000000
      9        -11.772313   1.000000
     10        -10.999224   1.000000
     11        -10.517474   1.000000
     12        -10.364131   1.000000
     13         -9.824674   1.000000
     14         -9.659643   1.000000
     15         -8.758667   1.000000
     16         -8.539987   1.000000
     17         -8.288704   1.000000
     18         -7.912496   1.000000
     19         -7.576853   1.000000
     20         -7.474326   1.000000
     21         -6.128701   1.000000
     22         -0.943844   0.000000
     23         -0.584279   0.000000
     24         -0.147111   0.000000
     25         -0.079206   0.000000
     26         -0.035447   0.000000
     27          0.035820   0.000000
     28          0.174506   0.000000
     29          0.383525   0.000000
     30          0.494516   0.000000
