   13   13    1    1
  0.4399093E+03  0.1965580E-08  0.1732980E-08  0.1678890E-08  0.5000000E-15
  1.000000000000000E-004
  CAR 
 unknown system                          
     26      1     20
 
  0.0000000E+00  0.0000000E+00  0.0000000E+00  0.1000000E+01
      1        -22.054674   1.000000
      2        -18.683950   1.000000
      3        -15.971761   1.000000
      4        -14.299247   1.000000
      5        -12.188988   1.000000
      6        -10.959317   1.000000
      7        -10.436043   1.000000
      8         -9.794860   1.000000
      9         -9.168794   1.000000
     10         -8.275942   1.000000
     11         -8.209771   1.000000
     12         -7.343916   1.000000
     13         -5.340925   1.000000
     14         -0.543101   0.000000
     15         -0.226000   0.000000
     16          0.058153   0.000000
     17          0.080302   0.000000
     18          0.102194   0.000000
     19          0.419703   0.000000
     20          0.637711   0.000000
