 vasp.6.3.2 27Jun22 (build Oct 05 2023 17:59:42) gamma-only                     
  
 executed on             LinuxIFC date 2024.04.05  18:28:44
 running on   18 total cores
 each image running on    2 cores
 distrk:  each k-point on    2 cores,    1 groups
 distr:  one band on NCORE=   1 cores,    2 groups


--------------------------------------------------------------------------------------------------------


 INCAR:
   ENCUT = 400.000000
   SIGMA = 0.050000
   ALGO = Fast
   GGA = PE
   ISMEAR = 0
   ISPIN = 1
   IVDW = 11
   LCHARG = .FALSE.
   LWAVE = .FALSE.
   EDIFF = 1E-05
   EDIFFG = -0.05
   NSW = 5000
   IBRION = 1
   SPRING = -5
   POTIM = 0.1
   PREC = NORMAL
   IMAGES = 9
   LCLIMB = .TRUE.

 POTCAR:    PAW_PBE C 08Apr2002                   
 POTCAR:    PAW_PBE H 15Jun2001                   
 POTCAR:    PAW_PBE N 08Apr2002                   
 POTCAR:    PAW_PBE C 08Apr2002                   
   SHA256 =  253f7b50bb8d59471dbedb8285d89021f4a42ed1a2c5d38a03a736e69125dd95 C/POTCAR              
   COPYR  = (c) Copyright 08Apr2002 Georg Kresse                                                    
   COPYR  = This file is part of the software VASP. Any use, copying, and all other rights are regul
   COPYR  = If you do not have a valid VASP license, you may not use, copy or distribute this file. 
   VRHFIN =C: s2p2                                                                                  
   LEXCH  = PE                                                                                      
   EATOM  =   147.1560 eV,   10.8157 Ry                                                             
                                                                                                    
   TITEL  = PAW_PBE C 08Apr2002                                                                     
   LULTRA =        F    use ultrasoft PP ?                                                          
   IUNSCR =        1    unscreen: 0-lin 1-nonlin 2-no                                               
   RPACOR =    1.200    partial core radius                                                         
   POMASS =   12.011; ZVAL   =    4.000    mass and valenz                                          
   RCORE  =    1.500    outmost cutoff radius                                                       
   RWIGS  =    1.630; RWIGS  =    0.863    wigner-seitz radius (au A)                               
   ENMAX  =  400.000; ENMIN  =  300.000 eV                                                          
   ICORE  =        2    local potential                                                             
   LCOR   =        T    correct aug charges                                                         
   LPAW   =        T    paw PP                                                                      
   EAUG   =  644.873                                                                                
   DEXC   =    0.000                                                                                
   RMAX   =    1.529    core radius for proj-oper                                                   
   RAUG   =    1.300    factor for augmentation sphere                                              
   RDEP   =    1.501    radius for radial grids                                                     
   RDEPT  =    1.300    core radius for aug-charge                                                  
                                                                                                    
   Atomic configuration                                                                             
    4 entries                                                                                       
     n  l   j            E        occ.                                                              
     1  0  0.50      -273.3789   2.0000                                                             
     2  0  0.50       -13.7508   2.0000                                                             
     2  1  0.50        -5.2854   2.0000                                                             
     3  2  1.50        -5.4423   0.0000                                                             
   Description                                                                                      
     l       E           TYP  RCUT    TYP  RCUT                                                     
     0    -13.7508458     23  1.200                                                                 
     0     -8.2022199     23  1.200                                                                 
     1     -5.2854383     23  1.500                                                                 
     1     34.0145650     23  1.500                                                                 
     2     -5.4423304      7  1.500                                                                 
  local pseudopotential read in
  partial core-charges read in
  partial kinetic energy density read in
  atomic valenz-charges read in
  non local Contribution for L=           0  read in
    real space projection operators read in
  non local Contribution for L=           0  read in
    real space projection operators read in
  non local Contribution for L=           1  read in
    real space projection operators read in
  non local Contribution for L=           1  read in
    real space projection operators read in
    PAW grid and wavefunctions read in
 
   number of l-projection  operators is LMAX  =           4
   number of lm-projection operators is LMMAX =           8
 
 POTCAR:    PAW_PBE H 15Jun2001                   
   SHA256 =  030f79b5d3ab3cf0e668861823c8fb652ff669f3e15e46930bd03bfd63a607b6 H/POTCAR              
   COPYR  = (c) Copyright 15Jun2001 Georg Kresse                                                    
   COPYR  = This file is part of the software VASP. Any use, copying, and all other rights are regul
   COPYR  = If you do not have a valid VASP license, you may not use, copy or distribute this file. 
   VRHFIN =H: ultrasoft test                                                                        
   LEXCH  = PE                                                                                      
   EATOM  =    12.4884 eV,    0.9179 Ry                                                             
                                                                                                    
   TITEL  = PAW_PBE H 15Jun2001                                                                     
   LULTRA =        F    use ultrasoft PP ?                                                          
   IUNSCR =        0    unscreen: 0-lin 1-nonlin 2-no                                               
   RPACOR =    0.000    partial core radius                                                         
   POMASS =    1.000; ZVAL   =    1.000    mass and valenz                                          
   RCORE  =    1.100    outmost cutoff radius                                                       
   RWIGS  =    0.700; RWIGS  =    0.370    wigner-seitz radius (au A)                               
   ENMAX  =  250.000; ENMIN  =  200.000 eV                                                          
   RCLOC  =    0.701    cutoff for local pot                                                        
   LCOR   =        T    correct aug charges                                                         
   LPAW   =        T    paw PP                                                                      
   EAUG   =  400.000                                                                                
   RMAX   =    1.123    core radius for proj-oper                                                   
   RAUG   =    1.200    factor for augmentation sphere                                              
   RDEP   =    1.112    radius for radial grids                                                     
   RDEPT  =    0.926    core radius for aug-charge                                                  
                                                                                                    
   Atomic configuration                                                                             
    2 entries                                                                                       
     n  l   j            E        occ.                                                              
     1  0  0.50        -6.4927   1.0000                                                             
     2  1  0.50        -3.4015   0.0000                                                             
   Description                                                                                      
     l       E           TYP  RCUT    TYP  RCUT                                                     
     0     -6.4927494     23  1.100                                                                 
     0      6.8029130     23  1.100                                                                 
     1     -4.0817478     23  1.100                                                                 
  local pseudopotential read in
  atomic valenz-charges read in
  non local Contribution for L=           0  read in
    real space projection operators read in
  non local Contribution for L=           0  read in
    real space projection operators read in
  non local Contribution for L=           1  read in
    real space projection operators read in
    PAW grid and wavefunctions read in
 
   number of l-projection  operators is LMAX  =           3
   number of lm-projection operators is LMMAX =           5
 
 POTCAR:    PAW_PBE N 08Apr2002                   
   SHA256 =  e053789ff3a61a86a1b75d8a110fcc91f86041011e7b0817c7c99e4e8a6349d7 N/POTCAR              
   COPYR  = (c) Copyright 08Apr2002 Georg Kresse                                                    
   COPYR  = This file is part of the software VASP. Any use, copying, and all other rights are regul
   COPYR  = If you do not have a valid VASP license, you may not use, copy or distribute this file. 
   VRHFIN =N: s2p3                                                                                  
   LEXCH  = PE                                                                                      
   EATOM  =   264.5486 eV,   19.4438 Ry                                                             
                                                                                                    
   TITEL  = PAW_PBE N 08Apr2002                                                                     
   LULTRA =        F    use ultrasoft PP ?                                                          
   IUNSCR =        1    unscreen: 0-lin 1-nonlin 2-no                                               
   RPACOR =    1.200    partial core radius                                                         
   POMASS =   14.001; ZVAL   =    5.000    mass and valenz                                          
   RCORE  =    1.500    outmost cutoff radius                                                       
   RWIGS  =    1.400; RWIGS  =    0.741    wigner-seitz radius (au A)                               
   ENMAX  =  400.000; ENMIN  =  300.000 eV                                                          
   ICORE  =        2    local potential                                                             
   LCOR   =        T    correct aug charges                                                         
   LPAW   =        T    paw PP                                                                      
   EAUG   =  627.112                                                                                
   DEXC   =    0.000                                                                                
   RMAX   =    1.529    core radius for proj-oper                                                   
   RAUG   =    1.300    factor for augmentation sphere                                              
   RDEP   =    1.514    radius for radial grids                                                     
   RDEPT  =    1.338    core radius for aug-charge                                                  
                                                                                                    
   Atomic configuration                                                                             
    4 entries                                                                                       
     n  l   j            E        occ.                                                              
     1  0  0.50      -384.7179   2.0000                                                             
     2  0  0.50       -18.5828   2.0000                                                             
     2  1  0.50        -7.0898   3.0000                                                             
     3  2  1.50        -6.8029   0.0000                                                             
   Description                                                                                      
     l       E           TYP  RCUT    TYP  RCUT                                                     
     0    -18.5828119     23  1.200                                                                 
     0    -13.5018863     23  1.200                                                                 
     1     -7.0897853     23  1.500                                                                 
     1      9.5240782     23  1.500                                                                 
     2     -6.8029130      7  1.500                                                                 
  local pseudopotential read in
  partial core-charges read in
  partial kinetic energy density read in
  atomic valenz-charges read in
  non local Contribution for L=           0  read in
    real space projection operators read in
  non local Contribution for L=           0  read in
    real space projection operators read in
  non local Contribution for L=           1  read in
    real space projection operators read in
  non local Contribution for L=           1  read in
    real space projection operators read in
    PAW grid and wavefunctions read in
 
   number of l-projection  operators is LMAX  =           4
   number of lm-projection operators is LMMAX =           8
 
 -----------------------------------------------------------------------------
|                                                                             |
|               ----> ADVICE to this user running VASP <----                  |
|                                                                             |
|     You have a (more or less) 'large supercell' and for larger cells it     |
|     might be more efficient to use real-space projection operators.         |
|     Therefore, try LREAL= Auto in the INCAR file.                           |
|     Mind: For very accurate calculation, you might also keep the            |
|     reciprocal projection scheme (i.e. LREAL=.FALSE.).                      |
|                                                                             |
 -----------------------------------------------------------------------------

  PAW_PBE C 08Apr2002                   :
 energy of atom  1       EATOM= -147.1560
 kinetic energy error for atom=    0.0288 (will be added to EATOM!!)
  PAW_PBE H 15Jun2001                   :
 energy of atom  2       EATOM=  -12.4884
 kinetic energy error for atom=    0.0098 (will be added to EATOM!!)
  PAW_PBE N 08Apr2002                   :
 energy of atom  3       EATOM= -264.5486
 kinetic energy error for atom=    0.0736 (will be added to EATOM!!)
 
 
 POSCAR:  C  H  N
  positions in cartesian coordinates
  No initial velocities read in
 exchange correlation table for  LEXCH =        8
   RHO(1)=    0.500       N(1)  =     2000
   RHO(2)=  100.500       N(2)  =     4000

 VTST: version 4.1, (05/19/21)

 CHAIN: initializing optimizer
 
 OPT: Using VASP QUASI-newton optimizer
 CHAIN: Read ICHAIN            0
 CHAIN: Running the NEB
 NEB:          SPRING     -5.000000
 NEB:          LCLIMB      T
 NEB:     LTANGENTOLD      F
 NEB:           LDNEB      F
 NEB:        LDNEBORG      F
 NEB:        LNEBCELL      F
 NEB:          EFIRST      0.000000
 NEB:           ELAST      0.000000
 
 POSCAR:  C  H  N
  positions in cartesian coordinates
  No initial velocities read in
 
 POSCAR:  C  H  N
  positions in cartesian coordinates
  No initial velocities read in
 
 POSCAR:  C  H  N
  positions in cartesian coordinates
  No initial velocities read in
 
 POSCAR:  C  H  N
  positions in cartesian coordinates
  No initial velocities read in
 


--------------------------------------------------------------------------------------------------------


 ion  position               nearest neighbor table
   1  0.340  0.439  0.569-   8 1.09   2 1.34   4 1.49
   2  0.334  0.526  0.568-  11 1.09   1 1.34   3 1.49
   3  0.413  0.576  0.543-  12 1.09  13 1.10   2 1.49   6 1.59
   4  0.424  0.401  0.542-   9 1.09  10 1.09   1 1.49   5 1.58
   5  0.447  0.438  0.449-  14 1.09  15 1.10   6 1.56   4 1.58
   6  0.445  0.540  0.452-  16 1.09   7 1.45   5 1.56   3 1.59
   7  0.529  0.578  0.430-  17 1.17   6 1.45
   8  0.282  0.399  0.579-   1 1.09
   9  0.477  0.422  0.584-   4 1.09
  10  0.422  0.330  0.542-   4 1.09
  11  0.273  0.560  0.577-   2 1.09
  12  0.468  0.562  0.586-   3 1.09
  13  0.403  0.646  0.543-   3 1.10
  14  0.399  0.414  0.403-   5 1.09
  15  0.511  0.415  0.429-   5 1.10
  16  0.398  0.563  0.404-   6 1.09
  17  0.595  0.611  0.417-   7 1.17
 
  LATTYP: Found a simple cubic cell.
 ALAT       =    15.4022502899
  
  Lattice vectors:
  
 A1 = (  15.4022502899,   0.0000000000,   0.0000000000)
 A2 = (   0.0000000000,  15.4022502899,   0.0000000000)
 A3 = (   0.0000000000,   0.0000000000,  15.4022502899)


Analysis of symmetry for initial positions (statically):
=====================================================================
 Subroutine PRICEL returns:
 Original cell was already a primitive cell.
 

 Routine SETGRP: Setting up the symmetry group for a 
 simple cubic supercell.


 Subroutine GETGRP returns: Found  1 space group operations
 (whereof  1 operations were pure point group operations)
 out of a pool of 48 trial point group operations.


The static configuration has the point symmetry C_1 .


Analysis of symmetry for dynamics (positions and initial velocities):
=====================================================================
 Subroutine PRICEL returns:
 Original cell was already a primitive cell.
 

 Routine SETGRP: Setting up the symmetry group for a 
 simple cubic supercell.


 Subroutine GETGRP returns: Found  1 space group operations
 (whereof  1 operations were pure point group operations)
 out of a pool of 48 trial point group operations.


The dynamic configuration has the point symmetry C_1 .


 Subroutine INISYM returns: Found  1 space group operations
 (whereof  1 operations are pure point group operations),
 and found     1 'primitive' translations


----------------------------------------------------------------------------------------

                                     Primitive cell                                     

  volume of cell :    3653.8653

  direct lattice vectors                    reciprocal lattice vectors
    15.402250290  0.000000000  0.000000000     0.064925578  0.000000000  0.000000000
     0.000000000 15.402250290  0.000000000     0.000000000  0.064925578  0.000000000
     0.000000000  0.000000000 15.402250290     0.000000000  0.000000000  0.064925578

  length of vectors
    15.402250290 15.402250290 15.402250290     0.064925578  0.064925578  0.064925578

  position of ions in fractional coordinates (direct lattice)
     0.339714287  0.439362225  0.569461028
     0.334411785  0.526152087  0.568477815
     0.413360305  0.575531696  0.543090872
     0.423589080  0.400687472  0.541531663
     0.447290831  0.438374080  0.449227474
     0.445328642  0.539755396  0.451659657
     0.528978310  0.577699734  0.430266126
     0.282460745  0.399147362  0.579060529
     0.476653028  0.421977935  0.583551347
     0.422354752  0.329646170  0.541923132
     0.272772309  0.559897359  0.576994955
     0.467898809  0.561668922  0.586344831
     0.402989018  0.645879361  0.542755912
     0.399096567  0.413588373  0.403287717
     0.511180240  0.414535266  0.428883707
     0.398402959  0.563019267  0.404032653
     0.595447977  0.611460250  0.417054406

  ion indices of the primitive-cell ions
   primitive index   ion index
                 1           1
                 2           2
                 3           3
                 4           4
                 5           5
                 6           6
                 7           7
                 8           8
                 9           9
                10          10
                11          11
                12          12
                13          13
                14          14
                15          15
                16          16
                17          17

----------------------------------------------------------------------------------------

 
 
 KPOINTS: KPOINTS created by Atomic Simulation Env

Automatic generation of k-mesh.
 Grid dimensions read from file:
 generate k-points for:    1    1    1

 Generating k-lattice:

  Cartesian coordinates                     Fractional coordinates (reciprocal lattice)
     0.064925578  0.000000000  0.000000000     1.000000000  0.000000000  0.000000000
     0.000000000  0.064925578  0.000000000     0.000000000  1.000000000  0.000000000
     0.000000000  0.000000000  0.064925578     0.000000000  0.000000000  1.000000000

  Length of vectors
     0.064925578  0.064925578  0.064925578

  Shift w.r.t. Gamma in fractional coordinates (k-lattice)
     0.000000000  0.000000000  0.000000000

 
 Subroutine IBZKPT returns following result:
 ===========================================
 
 Found      1 irreducible k-points:
 
 Following reciprocal coordinates:
            Coordinates               Weight
  0.000000  0.000000  0.000000      1.000000
 
 Following cartesian coordinates:
            Coordinates               Weight
  0.000000  0.000000  0.000000      1.000000
 


--------------------------------------------------------------------------------------------------------




 Dimension of arrays:
   k-points           NKPTS =      1   k-points in BZ     NKDIM =      1   number of bands    NBANDS=     30
   number of dos      NEDOS =    301   number of ions     NIONS =     17
   non local maximal  LDIM  =      4   non local SUM 2l+1 LMDIM =      8
   total plane-waves  NPLWV = 512000
   max r-space proj   IRMAX =      1   max aug-charges    IRDMAX=   1924
   dimension x,y,z NGX =    80 NGY =   80 NGZ =   80
   dimension x,y,z NGXF=   160 NGYF=  160 NGZF=  160
   support grid    NGXF=   160 NGYF=  160 NGZF=  160
   ions per type =               7   9   1
   NGX,Y,Z   is equivalent  to a cutoff of   8.63,  8.63,  8.63 a.u.
   NGXF,Y,Z  is equivalent  to a cutoff of  17.27, 17.27, 17.27 a.u.

 SYSTEM =  unknown system                          
 POSCAR =   C  H  N                                

 Startparameter for this run:
   NWRITE =      2    write-flag & timer
   PREC   = normal    normal or accurate (medium, high low for compatibility)
   ISTART =      0    job   : 0-new  1-cont  2-samecut
   ICHARG =      2    charge: 1-file 2-atom 10-const
   ISPIN  =      1    spin polarized calculation?
   LNONCOLLINEAR =      F non collinear calculations
   LSORBIT =      F    spin-orbit coupling
   INIWAV =      1    electr: 0-lowe 1-rand  2-diag
   LASPH  =      F    aspherical Exc in radial PAW
 Electronic Relaxation 1
   ENCUT  =  400.0 eV  29.40 Ry    5.42 a.u.  25.12 25.12 25.12*2*pi/ulx,y,z
   ENINI  =  400.0     initial cutoff
   ENAUG  =  644.9 eV  augmentation charge cutoff
   NELM   =     60;   NELMIN=  2; NELMDL= -5     # of ELM steps 
   EDIFF  = 0.1E-04   stopping-criterion for ELM
   LREAL  =      F    real-space projection
   NLSPLINE    = F    spline interpolate recip. space projectors
   LCOMPAT=      F    compatible to vasp.4.4
   GGA_COMPAT  = T    GGA compatible to vasp.4.4-vasp.4.6
   LMAXPAW     = -100 max onsite density
   LMAXMIX     =    2 max onsite mixed and CHGCAR
   VOSKOWN=      0    Vosko Wilk Nusair interpolation
   ROPT   =    0.00000   0.00000   0.00000
 Ionic relaxation
   EDIFFG = -.5E-01   stopping-criterion for IOM
   NSW    =   5000    number of steps for IOM
   NBLOCK =      1;   KBLOCK =   5000    inner block; outer block 
   IBRION =      1    ionic relax: 0-MD 1-quasi-New 2-CG
   NFREE  =      0    steps in history (QN), initial steepest desc. (CG)
   ISIF   =      2    stress and relaxation
   IWAVPR =     11    prediction:  0-non 1-charg 2-wave 3-comb
   ISYM   =      2    0-nonsym 1-usesym 2-fastsym
   LCORR  =      T    Harris-Foulkes like correction to forces

   POTIM  = 0.1000    time-step for ionic-motion
   TEIN   =    0.0    initial temperature
   TEBEG  =    0.0;   TEEND  =   0.0 temperature during run
   SMASS  =  -3.00    Nose mass-parameter (am)
   estimated Nose-frequenzy (Omega)   =  0.10E-29 period in steps = 0.63E+47 mass=  -0.542E-26a.u.
   SCALEE = 1.0000    scale energy and forces
   NPACO  =    256;   APACO  = 10.0  distance and # of slots for P.C.
   PSTRESS=    0.0 pullay stress

  Mass of Ions in am
   POMASS =  12.01  1.00 14.00
  Ionic Valenz
   ZVAL   =   4.00  1.00  5.00
  Atomic Wigner-Seitz radii
   RWIGS  =  -1.00 -1.00 -1.00
  virtual crystal weights 
   VCA    =   1.00  1.00  1.00
   NELECT =      42.0000    total number of electrons
   NUPDOWN=      -1.0000    fix difference up-down

 DOS related values:
   EMIN   =  10.00;   EMAX   =-10.00  energy-range for DOS
   EFERMI =   0.00
   ISMEAR =     0;   SIGMA  =   0.05  broadening in eV -4-tet -1-fermi 0-gaus

 Electronic relaxation 2 (details)
   IALGO  =     68    algorithm
   LDIAG  =      T    sub-space diagonalisation (order eigenvalues)
   LSUBROT=      F    optimize rotation matrix (better conditioning)
   TURBO    =      0    0=normal 1=particle mesh
   IRESTART =      0    0=no restart 2=restart with 2 vectors
   NREBOOT  =      0    no. of reboots
   NMIN     =      0    reboot dimension
   EREF     =   0.00    reference energy to select bands
   IMIX   =      4    mixing-type and parameters
     AMIX     =   0.40;   BMIX     =  1.00
     AMIX_MAG =   1.60;   BMIX_MAG =  1.00
     AMIN     =   0.10
     WC   =   100.;   INIMIX=   1;  MIXPRE=   1;  MAXMIX= -45

 Intra band minimization:
   WEIMIN = 0.0010     energy-eigenvalue tresh-hold
   EBREAK =  0.83E-07  absolut break condition
   DEPER  =   0.30     relativ break condition  

   TIME   =   0.40     timestep for ELM

  volume/ion in A,a.u.               =     214.93      1450.44
  Fermi-wavevector in a.u.,A,eV,Ry     =   0.369465  0.698188  1.857259  0.136505
  Thomas-Fermi vector in A             =   1.296107
 
 Write flags
   LWAVE        =      F    write WAVECAR
   LDOWNSAMPLE  =      F    k-point downsampling of WAVECAR
   LCHARG       =      F    write CHGCAR
   LVTOT        =      F    write LOCPOT, total local potential
   LVHAR        =      F    write LOCPOT, Hartree potential only
   LELF         =      F    write electronic localiz. function (ELF)
   LORBIT       =      0    0 simple, 1 ext, 2 COOP (PROOUT), +10 PAW based schemes


 Dipole corrections
   LMONO  =      F    monopole corrections only (constant potential shift)
   LDIPOL =      F    correct potential (dipole corrections)
   IDIPOL =      0    1-x, 2-y, 3-z, 4-all directions 
   EPSILON=  1.0000000 bulk dielectric constant

 Exchange correlation treatment:
   GGA     =    PE    GGA type
   LEXCH   =     8    internal setting for exchange type
   LIBXC   =     F    Libxc                    
   VOSKOWN =     0    Vosko Wilk Nusair interpolation
   LHFCALC =     F    Hartree Fock is set to
   LHFONE  =     F    Hartree Fock one center treatment
   AEXX    =    0.0000 exact exchange contribution

 Linear response parameters
   LEPSILON=     F    determine dielectric tensor
   LRPA    =     F    only Hartree local field effects (RPA)
   LNABLA  =     F    use nabla operator in PAW spheres
   LVEL    =     F    velocity operator in full k-point grid
   CSHIFT  =0.1000    complex shift for real part using Kramers Kronig
   OMEGAMAX=  -1.0    maximum frequency
   DEG_THRESHOLD= 0.2000000E-02 threshold for treating states as degnerate
   RTIME   =   -0.100 relaxation time in fs
  (WPLASMAI=    0.000 imaginary part of plasma frequency in eV, 0.658/RTIME)
   DFIELD  = 0.0000000 0.0000000 0.0000000 field for delta impulse in time
 
  Optional k-point grid parameters
   LKPOINTS_OPT  =     F    use optional k-point grid
   KPOINTS_OPT_MODE=     1    mode for optional k-point grid
 
 Orbital magnetization related:
   ORBITALMAG=     F  switch on orbital magnetization
   LCHIMAG   =     F  perturbation theory with respect to B field
   DQ        =  0.001000  dq finite difference perturbation B field
   LLRAUG    =     F  two centre corrections for induced B field



--------------------------------------------------------------------------------------------------------


 quasi-Newton-method for relaxation of ions
 charge density and potential will be updated during run
 non-spin polarized calculation
 RMM-DIIS sequential band-by-band and
  variant of blocked Davidson during initial phase
 perform sub-space diagonalisation
    before iterative eigenvector-optimisation
 modified Broyden-mixing scheme, WC =      100.0
 initial mixing is a Kerker type mixing with AMIX =  0.4000 and BMIX =      1.0000
 Hartree-type preconditioning will be used
 using additional bands            9
 reciprocal scheme for non local part
 use partial core corrections
 calculate Harris-corrections to forces 
   (improved forces if not selfconsistent)
 use gradient corrections 
 use of overlap-Matrix (Vanderbilt PP)
 Gauss-broadening in eV      SIGMA  =   0.05


--------------------------------------------------------------------------------------------------------


  energy-cutoff  :      400.00
  volume of cell :     3653.87
      direct lattice vectors                 reciprocal lattice vectors
    15.402250290  0.000000000  0.000000000     0.064925578  0.000000000  0.000000000
     0.000000000 15.402250290  0.000000000     0.000000000  0.064925578  0.000000000
     0.000000000  0.000000000 15.402250290     0.000000000  0.000000000  0.064925578

  length of vectors
    15.402250290 15.402250290 15.402250290     0.064925578  0.064925578  0.064925578


 
 k-points in units of 2pi/SCALE and weight: KPOINTS created by Atomic Simulation Env
   0.00000000  0.00000000  0.00000000       1.000
 
 k-points in reciprocal lattice and weights: KPOINTS created by Atomic Simulation Env
   0.00000000  0.00000000  0.00000000       1.000
 
 position of ions in fractional coordinates (direct lattice) 
   0.33971429  0.43936223  0.56946103
   0.33441179  0.52615209  0.56847782
   0.41336030  0.57553170  0.54309087
   0.42358908  0.40068747  0.54153166
   0.44729083  0.43837408  0.44922747
   0.44532864  0.53975540  0.45165966
   0.52897831  0.57769973  0.43026613
   0.28246075  0.39914736  0.57906053
   0.47665303  0.42197794  0.58355135
   0.42235475  0.32964617  0.54192313
   0.27277231  0.55989736  0.57699495
   0.46789881  0.56166892  0.58634483
   0.40298902  0.64587936  0.54275591
   0.39909657  0.41358837  0.40328772
   0.51118024  0.41453527  0.42888371
   0.39840296  0.56301927  0.40403265
   0.59544798  0.61146025  0.41705441
 
 position of ions in cartesian coordinates  (Angst):
   5.23236448  6.76716696  8.77098129
   5.15069401  8.10392614  8.75583760
   6.36667888  8.86448323  8.36482154
   6.52422503  6.17148874  8.34080622
   6.88928533  6.75194730  6.91911399
   6.85906321  8.31344771  6.95657508
   8.14745633  8.89787589  6.62706656
   4.35053110  6.14776757  8.91883521
   7.34152924  6.49940977  8.98800390
   6.50521361  5.07729282  8.34683572
   4.20130737  8.62367926  8.88702071
   7.20669456  8.65096531  9.03102984
   6.20693771  9.94799558  8.35966240
   6.14698521  6.37019164  6.21153836
   7.87332601  6.38477592  6.60577420
   6.13630209  8.67176366  6.22301205
   9.17123877  9.41786381  6.42357634
 


--------------------------------------------------------------------------------------------------------


 use serial FFT for orbitals x direction half grid
 k-point   1 :   0.0000 0.0000 0.0000  plane waves:   33270

 maximum and minimum number of plane-waves per node :     33270    33270

 maximum number of plane-waves:     33270
 maximum index in each direction: 
   IXMAX=   25   IYMAX=   25   IZMAX=   25
   IXMIN=    0   IYMIN=  -25   IZMIN=  -25


 serial   3D FFT for wavefunctions
 parallel 3D FFT for charge:
    minimum data exchange during FFTs selected (reduces bandwidth)


 total amount of memory used by VASP MPI-rank0   277942. kBytes
=======================================================================

   base      :      30000. kBytes
   nonl-proj :      15437. kBytes
   fftplans  :      71598. kBytes
   grid      :     152883. kBytes
   one-center:         26. kBytes
   wavefun   :       7998. kBytes
 
     INWAV:  cpu time      0.0000: real time      0.0000
 Broyden mixing: mesh for mixing (old mesh)
   NGX = 51   NGY = 51   NGZ = 51
  (NGX  =160   NGY  =160   NGZ  =160)
  gives a total of 132651 points

 initial charge density was supplied:
 charge density of overlapping atoms calculated
 number of electron      42.0000000 magnetization 
 keeping initial charge density in first step


--------------------------------------------------------------------------------------------------------


 Maximum index for augmentation-charges          834 (set IRDMAX)


--------------------------------------------------------------------------------------------------------


 First call to EWALD:  gamma=   0.115
 Maximum number of real-space cells 3x 3x 3
 Maximum number of reciprocal cells 3x 3x 3

    FEWALD:  cpu time      0.0005: real time      0.0005


--------------------------------------- Iteration      1(   1)  ---------------------------------------


    POTLOK:  cpu time      1.7543: real time      1.7562
    SETDIJ:  cpu time      0.0169: real time      0.0169
     EDDAV:  cpu time      2.1513: real time      2.1602
       DOS:  cpu time      0.0003: real time      0.0003
    --------------------------------------------
      LOOP:  cpu time      3.9228: real time      3.9336

 eigenvalue-minimisations  :    76
 total energy-change (2. order) : 0.3284358E+03  (-0.1022983E+04)
 number of electron      42.0000000 magnetization 
 augmentation part       42.0000000 magnetization 

 Free energy of the ion-electron system (eV)
  ---------------------------------------------------
  alpha Z        PSCENC =         2.15216506
  Ewald energy   TEWEN  =      2589.41346626
  -Hartree energ DENC   =     -3528.38639330
  -exchange      EXHF   =         0.00000000
  -V(xc)+E(xc)   XCENC  =       131.31875587
  PAW double counting   =       983.79330320     -989.05002801
  entropy T*S    EENTRO =        -0.00303336
  eigenvalues    EBANDS =      -267.47566391
  atomic energy  EATOM  =      1406.67326350
  Solvation  Ediel_sol  =         0.00000000
  ---------------------------------------------------
  free energy    TOTEN  =       328.43583531 eV

  energy without entropy =      328.43886867  energy(sigma->0) =      328.43735199


--------------------------------------------------------------------------------------------------------




--------------------------------------- Iteration      1(   2)  ---------------------------------------


     EDDAV:  cpu time      2.0866: real time      2.0867
       DOS:  cpu time      0.0002: real time      0.0002
    --------------------------------------------
      LOOP:  cpu time      2.0867: real time      2.0868

 eigenvalue-minimisations  :    88
 total energy-change (2. order) :-0.2595844E+03  (-0.2449206E+03)
 number of electron      42.0000000 magnetization 
 augmentation part       42.0000000 magnetization 

 Free energy of the ion-electron system (eV)
  ---------------------------------------------------
  alpha Z        PSCENC =         2.15216506
  Ewald energy   TEWEN  =      2589.41346626
  -Hartree energ DENC   =     -3528.38639330
  -exchange      EXHF   =         0.00000000
  -V(xc)+E(xc)   XCENC  =       131.31875587
  PAW double counting   =       983.79330320     -989.05002801
  entropy T*S    EENTRO =        -0.00000000
  eigenvalues    EBANDS =      -527.06310327
  atomic energy  EATOM  =      1406.67326350
  Solvation  Ediel_sol  =         0.00000000
  ---------------------------------------------------
  free energy    TOTEN  =        68.85142931 eV

  energy without entropy =       68.85142931  energy(sigma->0) =       68.85142931


--------------------------------------------------------------------------------------------------------




--------------------------------------- Iteration      1(   3)  ---------------------------------------


     EDDAV:  cpu time      2.3192: real time      2.3198
       DOS:  cpu time      0.0002: real time      0.0002
    --------------------------------------------
      LOOP:  cpu time      2.3194: real time      2.3200

 eigenvalue-minimisations  :    80
 total energy-change (2. order) :-0.1629374E+03  (-0.1623536E+03)
 number of electron      42.0000000 magnetization 
 augmentation part       42.0000000 magnetization 

 Free energy of the ion-electron system (eV)
  ---------------------------------------------------
  alpha Z        PSCENC =         2.15216506
  Ewald energy   TEWEN  =      2589.41346626
  -Hartree energ DENC   =     -3528.38639330
  -exchange      EXHF   =         0.00000000
  -V(xc)+E(xc)   XCENC  =       131.31875587
  PAW double counting   =       983.79330320     -989.05002801
  entropy T*S    EENTRO =        -0.00000000
  eigenvalues    EBANDS =      -690.00053412
  atomic energy  EATOM  =      1406.67326350
  Solvation  Ediel_sol  =         0.00000000
  ---------------------------------------------------
  free energy    TOTEN  =       -94.08600153 eV

  energy without entropy =      -94.08600153  energy(sigma->0) =      -94.08600153


--------------------------------------------------------------------------------------------------------




--------------------------------------- Iteration      1(   4)  ---------------------------------------


     EDDAV:  cpu time      2.1738: real time      2.1773
       DOS:  cpu time      0.0003: real time      0.0003
    --------------------------------------------
      LOOP:  cpu time      2.1741: real time      2.1775

 eigenvalue-minimisations  :    80
 total energy-change (2. order) :-0.1940004E+02  (-0.1935681E+02)
 number of electron      42.0000000 magnetization 
 augmentation part       42.0000000 magnetization 

 Free energy of the ion-electron system (eV)
  ---------------------------------------------------
  alpha Z        PSCENC =         2.15216506
  Ewald energy   TEWEN  =      2589.41346626
  -Hartree energ DENC   =     -3528.38639330
  -exchange      EXHF   =         0.00000000
  -V(xc)+E(xc)   XCENC  =       131.31875587
  PAW double counting   =       983.79330320     -989.05002801
  entropy T*S    EENTRO =        -0.00000000
  eigenvalues    EBANDS =      -709.40057395
  atomic energy  EATOM  =      1406.67326350
  Solvation  Ediel_sol  =         0.00000000
  ---------------------------------------------------
  free energy    TOTEN  =      -113.48604137 eV

  energy without entropy =     -113.48604137  energy(sigma->0) =     -113.48604137


--------------------------------------------------------------------------------------------------------




--------------------------------------- Iteration      1(   5)  ---------------------------------------


     EDDAV:  cpu time      2.6695: real time      2.6772
       DOS:  cpu time      0.0003: real time      0.0004
    CHARGE:  cpu time      0.3163: real time      0.3178
    MIXING:  cpu time      0.0539: real time      0.0543
    --------------------------------------------
      LOOP:  cpu time      3.0401: real time      3.0497

 eigenvalue-minimisations  :    88
 total energy-change (2. order) :-0.2804725E+00  (-0.2791410E+00)
 number of electron      41.9999992 magnetization 
 augmentation part        1.1981092 magnetization 

 Broyden mixing:
  rms(total) = 0.16843E+01    rms(broyden)= 0.16837E+01
  rms(prec ) = 0.19431E+01
  weight for this iteration     100.00

 Free energy of the ion-electron system (eV)
  ---------------------------------------------------
  alpha Z        PSCENC =         2.15216506
  Ewald energy   TEWEN  =      2589.41346626
  -Hartree energ DENC   =     -3528.38639330
  -exchange      EXHF   =         0.00000000
  -V(xc)+E(xc)   XCENC  =       131.31875587
  PAW double counting   =       983.79330320     -989.05002801
  entropy T*S    EENTRO =        -0.00000000
  eigenvalues    EBANDS =      -709.68104640
  atomic energy  EATOM  =      1406.67326350
  Solvation  Ediel_sol  =         0.00000000
  ---------------------------------------------------
  free energy    TOTEN  =      -113.76651382 eV

  energy without entropy =     -113.76651382  energy(sigma->0) =     -113.76651382


--------------------------------------------------------------------------------------------------------




--------------------------------------- Iteration      1(   6)  ---------------------------------------


    POTLOK:  cpu time      1.5193: real time      1.5290
    SETDIJ:  cpu time      0.0038: real time      0.0038
    EDDIAG:  cpu time      0.3844: real time      0.3876
  RMM-DIIS:  cpu time      1.9261: real time      1.9276
    ORTHCH:  cpu time      0.0155: real time      0.0155
       DOS:  cpu time      0.0003: real time      0.0002
    CHARGE:  cpu time      0.2593: real time      0.2594
    MIXING:  cpu time      0.0441: real time      0.0440
    --------------------------------------------
      LOOP:  cpu time      4.1526: real time      4.1671

 eigenvalue-minimisations  :    60
 total energy-change (2. order) : 0.8222360E+01  (-0.1109351E+01)
 number of electron      41.9999990 magnetization 
 augmentation part        1.1071428 magnetization 

 Broyden mixing:
  rms(total) = 0.91918E+00    rms(broyden)= 0.91906E+00
  rms(prec ) = 0.10431E+01
  weight for this iteration     100.00

 eigenvalues of (default mixing * dielectric matrix)
  average eigenvalue GAMMA=   1.6713
  1.6713

 Free energy of the ion-electron system (eV)
  ---------------------------------------------------
  alpha Z        PSCENC =         2.15216506
  Ewald energy   TEWEN  =      2589.41346626
  -Hartree energ DENC   =     -3610.37424124
  -exchange      EXHF   =         0.00000000
  -V(xc)+E(xc)   XCENC  =       135.36475005
  PAW double counting   =      1762.73219449    -1768.77752986
  entropy T*S    EENTRO =        -0.00000000
  eigenvalues    EBANDS =      -622.72822238
  atomic energy  EATOM  =      1406.67326350
  Solvation  Ediel_sol  =         0.00000000
  ---------------------------------------------------
  free energy    TOTEN  =      -105.54415412 eV

  energy without entropy =     -105.54415412  energy(sigma->0) =     -105.54415412


--------------------------------------------------------------------------------------------------------




--------------------------------------- Iteration      1(   7)  ---------------------------------------


    POTLOK:  cpu time      2.0610: real time      2.0808
    SETDIJ:  cpu time      0.0052: real time      0.0052
    EDDIAG:  cpu time      0.5817: real time      0.5846
  RMM-DIIS:  cpu time      2.9995: real time      3.0014
    ORTHCH:  cpu time      0.0148: real time      0.0233
       DOS:  cpu time      0.0002: real time      0.0002
    CHARGE:  cpu time      0.2839: real time      0.2840
    MIXING:  cpu time      0.0545: real time      0.0545
    --------------------------------------------
      LOOP:  cpu time      6.0008: real time      6.0340

 eigenvalue-minimisations  :    60
 total energy-change (2. order) : 0.2058929E+01  (-0.1018420E+01)
 number of electron      41.9999990 magnetization 
 augmentation part        1.0556698 magnetization 

 Broyden mixing:
  rms(total) = 0.39248E+00    rms(broyden)= 0.39229E+00
  rms(prec ) = 0.42938E+00
  weight for this iteration     100.00

 eigenvalues of (default mixing * dielectric matrix)
  average eigenvalue GAMMA=   1.4136
  0.9519  1.8753

 Free energy of the ion-electron system (eV)
  ---------------------------------------------------
  alpha Z        PSCENC =         2.15216506
  Ewald energy   TEWEN  =      2589.41346626
  -Hartree energ DENC   =     -3683.97236396
  -exchange      EXHF   =         0.00000000
  -V(xc)+E(xc)   XCENC  =       139.08413746
  PAW double counting   =      2792.89840244    -2799.42806875
  entropy T*S    EENTRO =        -0.00000000
  eigenvalues    EBANDS =      -550.30622754
  atomic energy  EATOM  =      1406.67326350
  Solvation  Ediel_sol  =         0.00000000
  ---------------------------------------------------
  free energy    TOTEN  =      -103.48522554 eV

  energy without entropy =     -103.48522554  energy(sigma->0) =     -103.48522554


--------------------------------------------------------------------------------------------------------




--------------------------------------- Iteration      1(   8)  ---------------------------------------


    POTLOK:  cpu time      1.5831: real time      1.5834
    SETDIJ:  cpu time      0.0048: real time      0.0048
    EDDIAG:  cpu time      0.5224: real time      0.5224
  RMM-DIIS:  cpu time      2.0986: real time      2.1922
    ORTHCH:  cpu time      0.0180: real time      0.0340
       DOS:  cpu time      0.0002: real time      0.0002
    CHARGE:  cpu time      0.4125: real time      0.4766
    MIXING:  cpu time      0.0762: real time      0.0762
    --------------------------------------------
      LOOP:  cpu time      4.7158: real time      4.8899

 eigenvalue-minimisations  :    60
 total energy-change (2. order) : 0.1797653E+00  (-0.7351649E-01)
 number of electron      41.9999990 magnetization 
 augmentation part        1.0419539 magnetization 

 Broyden mixing:
  rms(total) = 0.23918E+00    rms(broyden)= 0.23915E+00
  rms(prec ) = 0.26320E+00
  weight for this iteration     100.00

 eigenvalues of (default mixing * dielectric matrix)
  average eigenvalue GAMMA=   1.7877
  2.7283  1.8426  0.7921

 Free energy of the ion-electron system (eV)
  ---------------------------------------------------
  alpha Z        PSCENC =         2.15216506
  Ewald energy   TEWEN  =      2589.41346626
  -Hartree energ DENC   =     -3695.02402846
  -exchange      EXHF   =         0.00000000
  -V(xc)+E(xc)   XCENC  =       139.82705369
  PAW double counting   =      3114.79404659    -3121.27605090
  entropy T*S    EENTRO =        -0.00000000
  eigenvalues    EBANDS =      -539.86537596
  atomic energy  EATOM  =      1406.67326350
  Solvation  Ediel_sol  =         0.00000000
  ---------------------------------------------------
  free energy    TOTEN  =      -103.30546023 eV

  energy without entropy =     -103.30546023  energy(sigma->0) =     -103.30546023


--------------------------------------------------------------------------------------------------------




--------------------------------------- Iteration      1(   9)  ---------------------------------------


    POTLOK:  cpu time      2.3717: real time      2.3808
    SETDIJ:  cpu time      0.0057: real time      0.0057
    EDDIAG:  cpu time      0.6273: real time      0.6275
  RMM-DIIS:  cpu time      3.2456: real time      3.2466
    ORTHCH:  cpu time      0.0235: real time      0.0235
       DOS:  cpu time      0.0002: real time      0.0002
    CHARGE:  cpu time      0.3619: real time      0.3620
    MIXING:  cpu time      0.0702: real time      0.0702
    --------------------------------------------
      LOOP:  cpu time      6.7060: real time      6.7164

 eigenvalue-minimisations  :    60
 total energy-change (2. order) : 0.1050102E+00  (-0.4635129E-01)
 number of electron      41.9999990 magnetization 
 augmentation part        1.0401117 magnetization 

 Broyden mixing:
  rms(total) = 0.69174E-01    rms(broyden)= 0.69161E-01
  rms(prec ) = 0.91394E-01
  weight for this iteration     100.00

 eigenvalues of (default mixing * dielectric matrix)
  average eigenvalue GAMMA=   1.4776
  2.2720  1.7350  0.8521  1.0514

 Free energy of the ion-electron system (eV)
  ---------------------------------------------------
  alpha Z        PSCENC =         2.15216506
  Ewald energy   TEWEN  =      2589.41346626
  -Hartree energ DENC   =     -3705.11727926
  -exchange      EXHF   =         0.00000000
  -V(xc)+E(xc)   XCENC  =       140.49428892
  PAW double counting   =      3537.66106560    -3543.95326140
  entropy T*S    EENTRO =        -0.00000000
  eigenvalues    EBANDS =      -530.52415869
  atomic energy  EATOM  =      1406.67326350
  Solvation  Ediel_sol  =         0.00000000
  ---------------------------------------------------
  free energy    TOTEN  =      -103.20045003 eV

  energy without entropy =     -103.20045003  energy(sigma->0) =     -103.20045003


--------------------------------------------------------------------------------------------------------




--------------------------------------- Iteration      1(  10)  ---------------------------------------


    POTLOK:  cpu time      2.2159: real time      2.2170
    SETDIJ:  cpu time      0.0054: real time      0.0054
    EDDIAG:  cpu time      0.6083: real time      0.6085
  RMM-DIIS:  cpu time      3.2112: real time      3.2118
    ORTHCH:  cpu time      0.0127: real time      0.0213
       DOS:  cpu time      0.0002: real time      0.0002
    CHARGE:  cpu time      0.3316: real time      0.3316
    MIXING:  cpu time      0.0603: real time      0.0604
    --------------------------------------------
      LOOP:  cpu time      6.4457: real time      6.4563

 eigenvalue-minimisations  :    64
 total energy-change (2. order) : 0.4574620E-02  (-0.7603862E-02)
 number of electron      41.9999990 magnetization 
 augmentation part        1.0379355 magnetization 

 Broyden mixing:
  rms(total) = 0.31655E-01    rms(broyden)= 0.31649E-01
  rms(prec ) = 0.55573E-01
  weight for this iteration     100.00

 eigenvalues of (default mixing * dielectric matrix)
  average eigenvalue GAMMA=   1.6065
  2.2963  2.2963  1.6413  0.9710  0.8274

 Free energy of the ion-electron system (eV)
  ---------------------------------------------------
  alpha Z        PSCENC =         2.15216506
  Ewald energy   TEWEN  =      2589.41346626
  -Hartree energ DENC   =     -3707.60377644
  -exchange      EXHF   =         0.00000000
  -V(xc)+E(xc)   XCENC  =       140.47769325
  PAW double counting   =      3480.36760157    -3486.69774302
  entropy T*S    EENTRO =        -0.00000000
  eigenvalues    EBANDS =      -527.97854559
  atomic energy  EATOM  =      1406.67326350
  Solvation  Ediel_sol  =         0.00000000
  ---------------------------------------------------
  free energy    TOTEN  =      -103.19587541 eV

  energy without entropy =     -103.19587541  energy(sigma->0) =     -103.19587541


--------------------------------------------------------------------------------------------------------




--------------------------------------- Iteration      1(  11)  ---------------------------------------


    POTLOK:  cpu time      1.7070: real time      1.7073
    SETDIJ:  cpu time      0.0216: real time      0.0215
    EDDIAG:  cpu time      0.4560: real time      0.4562
  RMM-DIIS:  cpu time      2.4211: real time      2.4214
    ORTHCH:  cpu time      0.0124: real time      0.0124
       DOS:  cpu time      0.0002: real time      0.0002
    CHARGE:  cpu time      0.3198: real time      0.3198
    MIXING:  cpu time      0.0614: real time      0.0615
    --------------------------------------------
      LOOP:  cpu time      4.9994: real time      5.0003

 eigenvalue-minimisations  :    60
 total energy-change (2. order) :-0.1035953E-01  (-0.1201870E-01)
 number of electron      41.9999990 magnetization 
 augmentation part        1.0364647 magnetization 

 Broyden mixing:
  rms(total) = 0.43917E-01    rms(broyden)= 0.43909E-01
  rms(prec ) = 0.55582E-01
  weight for this iteration     100.00

 eigenvalues of (default mixing * dielectric matrix)
  average eigenvalue GAMMA=   1.5009
  2.3926  2.3926  1.2896  1.2896  0.8543  0.7867

 Free energy of the ion-electron system (eV)
  ---------------------------------------------------
  alpha Z        PSCENC =         2.15216506
  Ewald energy   TEWEN  =      2589.41346626
  -Hartree energ DENC   =     -3716.33350950
  -exchange      EXHF   =         0.00000000
  -V(xc)+E(xc)   XCENC  =       140.53794481
  PAW double counting   =      3438.60024134    -3444.93247082
  entropy T*S    EENTRO =        -0.00000000
  eigenvalues    EBANDS =      -519.31733559
  atomic energy  EATOM  =      1406.67326350
  Solvation  Ediel_sol  =         0.00000000
  ---------------------------------------------------
  free energy    TOTEN  =      -103.20623494 eV

  energy without entropy =     -103.20623494  energy(sigma->0) =     -103.20623494


--------------------------------------------------------------------------------------------------------




--------------------------------------- Iteration      1(  12)  ---------------------------------------


    POTLOK:  cpu time      1.5336: real time      1.5337
    SETDIJ:  cpu time      0.0265: real time      0.0265
    EDDIAG:  cpu time      0.4864: real time      0.4865
  RMM-DIIS:  cpu time      2.4497: real time      2.4499
    ORTHCH:  cpu time      0.0162: real time      0.0162
       DOS:  cpu time      0.0003: real time      0.0003
    CHARGE:  cpu time      0.2969: real time      0.2970
    MIXING:  cpu time      0.0789: real time      0.0789
    --------------------------------------------
      LOOP:  cpu time      4.8886: real time      4.8890

 eigenvalue-minimisations  :    61
 total energy-change (2. order) : 0.6175368E-02  (-0.1136325E-02)
 number of electron      41.9999990 magnetization 
 augmentation part        1.0353198 magnetization 

 Broyden mixing:
  rms(total) = 0.25281E-01    rms(broyden)= 0.25280E-01
  rms(prec ) = 0.35537E-01
  weight for this iteration     100.00

 eigenvalues of (default mixing * dielectric matrix)
  average eigenvalue GAMMA=   1.5075
  2.4359  2.4359  1.4708  1.4708  0.7977  0.9705  0.9705

 Free energy of the ion-electron system (eV)
  ---------------------------------------------------
  alpha Z        PSCENC =         2.15216506
  Ewald energy   TEWEN  =      2589.41346626
  -Hartree energ DENC   =     -3716.76415881
  -exchange      EXHF   =         0.00000000
  -V(xc)+E(xc)   XCENC  =       140.57408345
  PAW double counting   =      3462.11706925    -3468.43353695
  entropy T*S    EENTRO =        -0.00000000
  eigenvalues    EBANDS =      -518.93241133
  atomic energy  EATOM  =      1406.67326350
  Solvation  Ediel_sol  =         0.00000000
  ---------------------------------------------------
  free energy    TOTEN  =      -103.20005957 eV

  energy without entropy =     -103.20005957  energy(sigma->0) =     -103.20005957


--------------------------------------------------------------------------------------------------------




--------------------------------------- Iteration      1(  13)  ---------------------------------------


    POTLOK:  cpu time      1.6392: real time      1.6394
    SETDIJ:  cpu time      0.0236: real time      0.0236
    EDDIAG:  cpu time      0.4339: real time      0.4340
  RMM-DIIS:  cpu time      2.1289: real time      2.1290
    ORTHCH:  cpu time      0.0152: real time      0.0152
       DOS:  cpu time      0.0002: real time      0.0002
    CHARGE:  cpu time      0.3088: real time      0.3088
    MIXING:  cpu time      0.0949: real time      0.0950
    --------------------------------------------
      LOOP:  cpu time      4.6449: real time      4.6453

 eigenvalue-minimisations  :    60
 total energy-change (2. order) :-0.7009737E-02  (-0.2505075E-02)
 number of electron      41.9999990 magnetization 
 augmentation part        1.0353410 magnetization 

 Broyden mixing:
  rms(total) = 0.12301E-01    rms(broyden)= 0.12296E-01
  rms(prec ) = 0.18826E-01
  weight for this iteration     100.00

 eigenvalues of (default mixing * dielectric matrix)
  average eigenvalue GAMMA=   1.6991
  3.9531  2.5358  1.8584  1.3075  1.3075  0.7922  0.9190  0.9190

 Free energy of the ion-electron system (eV)
  ---------------------------------------------------
  alpha Z        PSCENC =         2.15216506
  Ewald energy   TEWEN  =      2589.41346626
  -Hartree energ DENC   =     -3718.28718507
  -exchange      EXHF   =         0.00000000
  -V(xc)+E(xc)   XCENC  =       140.57469624
  PAW double counting   =      3449.26387355    -3455.56516892
  entropy T*S    EENTRO =        -0.00000000
  eigenvalues    EBANDS =      -517.43217992
  atomic energy  EATOM  =      1406.67326350
  Solvation  Ediel_sol  =         0.00000000
  ---------------------------------------------------
  free energy    TOTEN  =      -103.20706931 eV

  energy without entropy =     -103.20706931  energy(sigma->0) =     -103.20706931


--------------------------------------------------------------------------------------------------------




--------------------------------------- Iteration      1(  14)  ---------------------------------------


    POTLOK:  cpu time      1.6342: real time      1.6344
    SETDIJ:  cpu time      0.0240: real time      0.0240
    EDDIAG:  cpu time      0.4299: real time      0.4299
  RMM-DIIS:  cpu time      2.3745: real time      2.3748
    ORTHCH:  cpu time      0.0133: real time      0.0133
       DOS:  cpu time      0.0002: real time      0.0002
    CHARGE:  cpu time      0.2717: real time      0.2718
    MIXING:  cpu time      0.1340: real time      0.1343
    --------------------------------------------
      LOOP:  cpu time      4.8819: real time      4.8826

 eigenvalue-minimisations  :    60
 total energy-change (2. order) :-0.2749732E-02  (-0.4912115E-03)
 number of electron      41.9999990 magnetization 
 augmentation part        1.0347871 magnetization 

 Broyden mixing:
  rms(total) = 0.73873E-02    rms(broyden)= 0.73856E-02
  rms(prec ) = 0.11246E-01
  weight for this iteration     100.00

 eigenvalues of (default mixing * dielectric matrix)
  average eigenvalue GAMMA=   1.8326
  4.5879  2.4716  2.4716  1.6538  1.3153  1.3153  0.7950  0.9414  0.9414

 Free energy of the ion-electron system (eV)
  ---------------------------------------------------
  alpha Z        PSCENC =         2.15216506
  Ewald energy   TEWEN  =      2589.41346626
  -Hartree energ DENC   =     -3721.26891664
  -exchange      EXHF   =         0.00000000
  -V(xc)+E(xc)   XCENC  =       140.63390010
  PAW double counting   =      3450.27149263    -3456.58050870
  entropy T*S    EENTRO =        -0.00000000
  eigenvalues    EBANDS =      -514.50468126
  atomic energy  EATOM  =      1406.67326350
  Solvation  Ediel_sol  =         0.00000000
  ---------------------------------------------------
  free energy    TOTEN  =      -103.20981904 eV

  energy without entropy =     -103.20981904  energy(sigma->0) =     -103.20981904


--------------------------------------------------------------------------------------------------------




--------------------------------------- Iteration      1(  15)  ---------------------------------------


    POTLOK:  cpu time      2.1846: real time      2.1851
    SETDIJ:  cpu time      0.0054: real time      0.0054
    EDDIAG:  cpu time      0.6159: real time      0.6160
  RMM-DIIS:  cpu time      3.2628: real time      3.2630
    ORTHCH:  cpu time      0.0327: real time      0.0388
       DOS:  cpu time      0.0003: real time      0.0003
    CHARGE:  cpu time      0.4476: real time      0.4560
    MIXING:  cpu time      0.1351: real time      0.1351
    --------------------------------------------
      LOOP:  cpu time      6.6845: real time      6.6997

 eigenvalue-minimisations  :    61
 total energy-change (2. order) :-0.1133786E-01  (-0.4270495E-03)
 number of electron      41.9999990 magnetization 
 augmentation part        1.0339129 magnetization 

 Broyden mixing:
  rms(total) = 0.41277E-02    rms(broyden)= 0.41262E-02
  rms(prec ) = 0.60629E-02
  weight for this iteration     100.00

 eigenvalues of (default mixing * dielectric matrix)
  average eigenvalue GAMMA=   1.9181
  5.9757  2.7597  2.1310  2.1310  1.3114  1.3114  0.9276  0.9276  0.8073  0.8979

 Free energy of the ion-electron system (eV)
  ---------------------------------------------------
  alpha Z        PSCENC =         2.15216506
  Ewald energy   TEWEN  =      2589.41346626
  -Hartree energ DENC   =     -3722.92956049
  -exchange      EXHF   =         0.00000000
  -V(xc)+E(xc)   XCENC  =       140.65550798
  PAW double counting   =      3453.84550002    -3460.16151555
  entropy T*S    EENTRO =        -0.00000000
  eigenvalues    EBANDS =      -512.86998367
  atomic energy  EATOM  =      1406.67326350
  Solvation  Ediel_sol  =         0.00000000
  ---------------------------------------------------
  free energy    TOTEN  =      -103.22115690 eV

  energy without entropy =     -103.22115690  energy(sigma->0) =     -103.22115690


--------------------------------------------------------------------------------------------------------




--------------------------------------- Iteration      1(  16)  ---------------------------------------


    POTLOK:  cpu time      2.0201: real time      2.0295
    SETDIJ:  cpu time      0.0057: real time      0.0057
    EDDIAG:  cpu time      0.6269: real time      0.6270
  RMM-DIIS:  cpu time      3.5116: real time      3.5120
    ORTHCH:  cpu time      0.0272: real time      0.0273
       DOS:  cpu time      0.0002: real time      0.0002
    CHARGE:  cpu time      0.4207: real time      0.4208
    MIXING:  cpu time      0.1102: real time      0.1102
    --------------------------------------------
      LOOP:  cpu time      6.7227: real time      6.7326

 eigenvalue-minimisations  :    63
 total energy-change (2. order) :-0.3223160E-02  (-0.1058291E-03)
 number of electron      41.9999990 magnetization 
 augmentation part        1.0337496 magnetization 

 Broyden mixing:
  rms(total) = 0.30907E-02    rms(broyden)= 0.30902E-02
  rms(prec ) = 0.44400E-02
  weight for this iteration     100.00

 eigenvalues of (default mixing * dielectric matrix)
  average eigenvalue GAMMA=   2.0412
  6.8070  3.1826  2.1959  2.1959  1.7461  1.3177  1.3177  0.9866  0.9866  0.7967
  0.9205

 Free energy of the ion-electron system (eV)
  ---------------------------------------------------
  alpha Z        PSCENC =         2.15216506
  Ewald energy   TEWEN  =      2589.41346626
  -Hartree energ DENC   =     -3722.71838788
  -exchange      EXHF   =         0.00000000
  -V(xc)+E(xc)   XCENC  =       140.63484356
  PAW double counting   =      3451.23306893    -3457.54674919
  entropy T*S    EENTRO =        -0.00000000
  eigenvalues    EBANDS =      -513.06605029
  atomic energy  EATOM  =      1406.67326350
  Solvation  Ediel_sol  =         0.00000000
  ---------------------------------------------------
  free energy    TOTEN  =      -103.22438006 eV

  energy without entropy =     -103.22438006  energy(sigma->0) =     -103.22438006


--------------------------------------------------------------------------------------------------------




--------------------------------------- Iteration      1(  17)  ---------------------------------------


    POTLOK:  cpu time      2.1840: real time      2.1841
    SETDIJ:  cpu time      0.0048: real time      0.0048
    EDDIAG:  cpu time      0.6182: real time      0.6182
  RMM-DIIS:  cpu time      3.1495: real time      3.1498
    ORTHCH:  cpu time      0.0137: real time      0.0221
       DOS:  cpu time      0.0002: real time      0.0002
    CHARGE:  cpu time      0.2653: real time      0.2654
    MIXING:  cpu time      0.1039: real time      0.1039
    --------------------------------------------
      LOOP:  cpu time      6.3396: real time      6.3486

 eigenvalue-minimisations  :    60
 total energy-change (2. order) :-0.3720454E-02  (-0.8726912E-04)
 number of electron      41.9999990 magnetization 
 augmentation part        1.0339499 magnetization 

 Broyden mixing:
  rms(total) = 0.15787E-02    rms(broyden)= 0.15780E-02
  rms(prec ) = 0.21071E-02
  weight for this iteration     100.00

 eigenvalues of (default mixing * dielectric matrix)
  average eigenvalue GAMMA=   2.0607
  7.4894  3.6682  2.4242  1.9368  1.9368  1.3250  1.3250  1.0395  1.0395  0.7941
  0.8752  0.8752

 Free energy of the ion-electron system (eV)
  ---------------------------------------------------
  alpha Z        PSCENC =         2.15216506
  Ewald energy   TEWEN  =      2589.41346626
  -Hartree energ DENC   =     -3722.27971891
  -exchange      EXHF   =         0.00000000
  -V(xc)+E(xc)   XCENC  =       140.60855697
  PAW double counting   =      3451.61396619    -3457.92404905
  entropy T*S    EENTRO =        -0.00000000
  eigenvalues    EBANDS =      -513.48575054
  atomic energy  EATOM  =      1406.67326350
  Solvation  Ediel_sol  =         0.00000000
  ---------------------------------------------------
  free energy    TOTEN  =      -103.22810052 eV

  energy without entropy =     -103.22810052  energy(sigma->0) =     -103.22810052


--------------------------------------------------------------------------------------------------------




--------------------------------------- Iteration      1(  18)  ---------------------------------------


    POTLOK:  cpu time      1.6474: real time      1.6476
    SETDIJ:  cpu time      0.0056: real time      0.0056
    EDDIAG:  cpu time      0.4379: real time      0.4379
  RMM-DIIS:  cpu time      2.2185: real time      2.2187
    ORTHCH:  cpu time      0.0140: real time      0.0140
       DOS:  cpu time      0.0002: real time      0.0002
    CHARGE:  cpu time      0.2973: real time      0.2974
    MIXING:  cpu time      0.1114: real time      0.1114
    --------------------------------------------
      LOOP:  cpu time      4.7324: real time      4.7327

 eigenvalue-minimisations  :    57
 total energy-change (2. order) :-0.4550863E-03  (-0.1923185E-04)
 number of electron      41.9999990 magnetization 
 augmentation part        1.0338907 magnetization 

 Broyden mixing:
  rms(total) = 0.12785E-02    rms(broyden)= 0.12783E-02
  rms(prec ) = 0.16590E-02
  weight for this iteration     100.00

 eigenvalues of (default mixing * dielectric matrix)
  average eigenvalue GAMMA=   2.0981
  7.7772  3.7276  2.1750  2.1750  2.1916  1.9339  1.3319  1.3319  1.0030  1.0030
  0.7934  0.9158  0.9158

 Free energy of the ion-electron system (eV)
  ---------------------------------------------------
  alpha Z        PSCENC =         2.15216506
  Ewald energy   TEWEN  =      2589.41346626
  -Hartree energ DENC   =     -3722.35401469
  -exchange      EXHF   =         0.00000000
  -V(xc)+E(xc)   XCENC  =       140.61007920
  PAW double counting   =      3451.60689477    -3457.91753188
  entropy T*S    EENTRO =        -0.00000000
  eigenvalues    EBANDS =      -513.41287782
  atomic energy  EATOM  =      1406.67326350
  Solvation  Ediel_sol  =         0.00000000
  ---------------------------------------------------
  free energy    TOTEN  =      -103.22855560 eV

  energy without entropy =     -103.22855560  energy(sigma->0) =     -103.22855560


--------------------------------------------------------------------------------------------------------




--------------------------------------- Iteration      1(  19)  ---------------------------------------


    POTLOK:  cpu time      1.4828: real time      1.4829
    SETDIJ:  cpu time      0.0138: real time      0.0138
    EDDIAG:  cpu time      0.3544: real time      0.3613
  RMM-DIIS:  cpu time      2.1994: real time      2.2019
    ORTHCH:  cpu time      0.0149: real time      0.0150
       DOS:  cpu time      0.0002: real time      0.0002
    CHARGE:  cpu time      0.2638: real time      0.2639
    MIXING:  cpu time      0.1410: real time      0.1411
    --------------------------------------------
      LOOP:  cpu time      4.4705: real time      4.4802

 eigenvalue-minimisations  :    58
 total energy-change (2. order) :-0.7279242E-03  (-0.1273609E-04)
 number of electron      41.9999990 magnetization 
 augmentation part        1.0337801 magnetization 

 Broyden mixing:
  rms(total) = 0.13184E-02    rms(broyden)= 0.13182E-02
  rms(prec ) = 0.15276E-02
  weight for this iteration     100.00

 eigenvalues of (default mixing * dielectric matrix)
  average eigenvalue GAMMA=   2.1787
  8.5416  4.9651  2.5750  2.4561  1.8079  1.8079  1.3231  1.3231  1.0906  1.0906
  0.7950  0.9136  0.9136  0.8980

 Free energy of the ion-electron system (eV)
  ---------------------------------------------------
  alpha Z        PSCENC =         2.15216506
  Ewald energy   TEWEN  =      2589.41346626
  -Hartree energ DENC   =     -3722.38447975
  -exchange      EXHF   =         0.00000000
  -V(xc)+E(xc)   XCENC  =       140.60997823
  PAW double counting   =      3449.99206955    -3456.30399518
  entropy T*S    EENTRO =        -0.00000000
  eigenvalues    EBANDS =      -513.38175120
  atomic energy  EATOM  =      1406.67326350
  Solvation  Ediel_sol  =         0.00000000
  ---------------------------------------------------
  free energy    TOTEN  =      -103.22928353 eV

  energy without entropy =     -103.22928353  energy(sigma->0) =     -103.22928353


--------------------------------------------------------------------------------------------------------




--------------------------------------- Iteration      1(  20)  ---------------------------------------


    POTLOK:  cpu time      1.6237: real time      1.6343
    SETDIJ:  cpu time      0.0409: real time      0.0409
    EDDIAG:  cpu time      0.4873: real time      0.4873
  RMM-DIIS:  cpu time      2.1174: real time      2.1735
    ORTHCH:  cpu time      0.0271: real time      0.0271
       DOS:  cpu time      0.0002: real time      0.0002
    CHARGE:  cpu time      0.3744: real time      0.3761
    MIXING:  cpu time      0.1355: real time      0.1396
    --------------------------------------------
      LOOP:  cpu time      4.8064: real time      4.8791

 eigenvalue-minimisations  :    47
 total energy-change (2. order) :-0.1453236E-03  (-0.3845981E-05)
 number of electron      41.9999990 magnetization 
 augmentation part        1.0338075 magnetization 

 Broyden mixing:
  rms(total) = 0.61253E-03    rms(broyden)= 0.61250E-03
  rms(prec ) = 0.75207E-03
  weight for this iteration     100.00

 eigenvalues of (default mixing * dielectric matrix)
  average eigenvalue GAMMA=   2.1921
  8.4541  5.3147  2.6355  2.2572  2.2572  1.7482  1.7482  1.3297  1.3297  1.1669
  1.0094  1.0094  0.7943  0.9134  0.9134

 Free energy of the ion-electron system (eV)
  ---------------------------------------------------
  alpha Z        PSCENC =         2.15216506
  Ewald energy   TEWEN  =      2589.41346626
  -Hartree energ DENC   =     -3722.34456096
  -exchange      EXHF   =         0.00000000
  -V(xc)+E(xc)   XCENC  =       140.60826339
  PAW double counting   =      3450.66060872    -3456.97165669
  entropy T*S    EENTRO =        -0.00000000
  eigenvalues    EBANDS =      -513.42097813
  atomic energy  EATOM  =      1406.67326350
  Solvation  Ediel_sol  =         0.00000000
  ---------------------------------------------------
  free energy    TOTEN  =      -103.22942885 eV

  energy without entropy =     -103.22942885  energy(sigma->0) =     -103.22942885


--------------------------------------------------------------------------------------------------------




--------------------------------------- Iteration      1(  21)  ---------------------------------------


    POTLOK:  cpu time      1.5607: real time      1.6234
    SETDIJ:  cpu time      0.0051: real time      0.0052
    EDDIAG:  cpu time      0.4255: real time      0.4470
  RMM-DIIS:  cpu time      1.4116: real time      1.4506
    ORTHCH:  cpu time      0.0090: real time      0.0092
       DOS:  cpu time      0.0001: real time      0.0001
    CHARGE:  cpu time      0.1618: real time      0.1690
    MIXING:  cpu time      0.0670: real time      0.0671
    --------------------------------------------
      LOOP:  cpu time      3.6408: real time      3.7717

 eigenvalue-minimisations  :    43
 total energy-change (2. order) :-0.1226555E-03  (-0.2352214E-05)
 number of electron      41.9999990 magnetization 
 augmentation part        1.0338249 magnetization 

 Broyden mixing:
  rms(total) = 0.40532E-03    rms(broyden)= 0.40522E-03
  rms(prec ) = 0.49031E-03
  weight for this iteration     100.00

 eigenvalues of (default mixing * dielectric matrix)
  average eigenvalue GAMMA=   2.2212
  8.9891  5.4770  3.3703  2.5812  2.1461  2.1461  1.3196  1.3196  1.3645  1.3645
  0.9783  0.9783  0.7944  0.9054  0.9027  0.9027

 Free energy of the ion-electron system (eV)
  ---------------------------------------------------
  alpha Z        PSCENC =         2.15216506
  Ewald energy   TEWEN  =      2589.41346626
  -Hartree energ DENC   =     -3722.33509330
  -exchange      EXHF   =         0.00000000
  -V(xc)+E(xc)   XCENC  =       140.60847859
  PAW double counting   =      3451.07250922    -3457.38340941
  entropy T*S    EENTRO =        -0.00000000
  eigenvalues    EBANDS =      -513.43093142
  atomic energy  EATOM  =      1406.67326350
  Solvation  Ediel_sol  =         0.00000000
  ---------------------------------------------------
  free energy    TOTEN  =      -103.22955151 eV

  energy without entropy =     -103.22955151  energy(sigma->0) =     -103.22955151


--------------------------------------------------------------------------------------------------------




--------------------------------------- Iteration      1(  22)  ---------------------------------------


    POTLOK:  cpu time      1.0286: real time      1.0291
    SETDIJ:  cpu time      0.0080: real time      0.0080
    EDDIAG:  cpu time      0.2062: real time      0.2063
  RMM-DIIS:  cpu time      0.8336: real time      0.8338
    ORTHCH:  cpu time      0.0053: real time      0.0053
       DOS:  cpu time      0.0001: real time      0.0001
    CHARGE:  cpu time      0.1409: real time      0.1409
    MIXING:  cpu time      0.1028: real time      0.1028
    --------------------------------------------
      LOOP:  cpu time      2.3253: real time      2.3261

 eigenvalue-minimisations  :    39
 total energy-change (2. order) :-0.3684077E-04  (-0.3725985E-06)
 number of electron      41.9999990 magnetization 
 augmentation part        1.0338222 magnetization 

 Broyden mixing:
  rms(total) = 0.20775E-03    rms(broyden)= 0.20772E-03
  rms(prec ) = 0.25777E-03
  weight for this iteration     100.00

 eigenvalues of (default mixing * dielectric matrix)
  average eigenvalue GAMMA=   2.2407
  9.0161  5.7980  3.5975  2.4428  2.4428  2.0664  1.8357  1.3145  1.3145  1.3385
  1.3385  1.0181  1.0181  0.7944  0.9240  0.9240  0.9085

 Free energy of the ion-electron system (eV)
  ---------------------------------------------------
  alpha Z        PSCENC =         2.15216506
  Ewald energy   TEWEN  =      2589.41346626
  -Hartree energ DENC   =     -3722.35576753
  -exchange      EXHF   =         0.00000000
  -V(xc)+E(xc)   XCENC  =       140.60895233
  PAW double counting   =      3450.84067032    -3457.15160127
  entropy T*S    EENTRO =        -0.00000000
  eigenvalues    EBANDS =      -513.41073701
  atomic energy  EATOM  =      1406.67326350
  Solvation  Ediel_sol  =         0.00000000
  ---------------------------------------------------
  free energy    TOTEN  =      -103.22958835 eV

  energy without entropy =     -103.22958835  energy(sigma->0) =     -103.22958835


--------------------------------------------------------------------------------------------------------




--------------------------------------- Iteration      1(  23)  ---------------------------------------


    POTLOK:  cpu time      1.0808: real time      1.0809
    SETDIJ:  cpu time      0.0078: real time      0.0078
    EDDIAG:  cpu time      0.2094: real time      0.2095
  RMM-DIIS:  cpu time      0.7244: real time      0.7244
    ORTHCH:  cpu time      0.0067: real time      0.0068
       DOS:  cpu time      0.0001: real time      0.0001
    CHARGE:  cpu time      0.1409: real time      0.1409
    MIXING:  cpu time      0.0767: real time      0.0767
    --------------------------------------------
      LOOP:  cpu time      2.2469: real time      2.2471

 eigenvalue-minimisations  :    38
 total energy-change (2. order) :-0.2339061E-04  (-0.2005757E-06)
 number of electron      41.9999990 magnetization 
 augmentation part        1.0338198 magnetization 

 Broyden mixing:
  rms(total) = 0.83149E-04    rms(broyden)= 0.83128E-04
  rms(prec ) = 0.10823E-03
  weight for this iteration     100.00

 eigenvalues of (default mixing * dielectric matrix)
  average eigenvalue GAMMA=   2.3027
  9.2192  6.3628  4.5575  2.7676  2.4897  2.0746  2.0746  1.3168  1.3168  1.3514
  1.3514  0.7943  1.0012  1.0012  0.9690  0.9690  0.9156  0.9156

 Free energy of the ion-electron system (eV)
  ---------------------------------------------------
  alpha Z        PSCENC =         2.15216506
  Ewald energy   TEWEN  =      2589.41346626
  -Hartree energ DENC   =     -3722.35568808
  -exchange      EXHF   =         0.00000000
  -V(xc)+E(xc)   XCENC  =       140.60890552
  PAW double counting   =      3450.88231430    -3457.19324859
  entropy T*S    EENTRO =        -0.00000000
  eigenvalues    EBANDS =      -513.41078971
  atomic energy  EATOM  =      1406.67326350
  Solvation  Ediel_sol  =         0.00000000
  ---------------------------------------------------
  free energy    TOTEN  =      -103.22961174 eV

  energy without entropy =     -103.22961174  energy(sigma->0) =     -103.22961174


--------------------------------------------------------------------------------------------------------




--------------------------------------- Iteration      1(  24)  ---------------------------------------


    POTLOK:  cpu time      0.9497: real time      0.9497
    SETDIJ:  cpu time      0.0091: real time      0.0091
    EDDIAG:  cpu time      0.1944: real time      0.1944
  RMM-DIIS:  cpu time      0.6977: real time      0.6996
    ORTHCH:  cpu time      0.0078: real time      0.0078
       DOS:  cpu time      0.0001: real time      0.0001
    --------------------------------------------
      LOOP:  cpu time      1.8587: real time      1.8608

 eigenvalue-minimisations  :    22
 total energy-change (2. order) :-0.8591346E-05  (-0.2604325E-07)
 number of electron      41.9999990 magnetization 
 augmentation part        1.0338198 magnetization 

 Free energy of the ion-electron system (eV)
  ---------------------------------------------------
  alpha Z        PSCENC =         2.15216506
  Ewald energy   TEWEN  =      2589.41346626
  -Hartree energ DENC   =     -3722.35141095
  -exchange      EXHF   =         0.00000000
  -V(xc)+E(xc)   XCENC  =       140.60873086
  PAW double counting   =      3450.81988644    -3457.13083783
  entropy T*S    EENTRO =        -0.00000000
  eigenvalues    EBANDS =      -513.41488368
  atomic energy  EATOM  =      1406.67326350
  Solvation  Ediel_sol  =         0.00000000
  ---------------------------------------------------
  free energy    TOTEN  =      -103.22962033 eV

  energy without entropy =     -103.22962033  energy(sigma->0) =     -103.22962033


[...]
 d Force =-0.8927469E-02[-0.833E-02,-0.952E-02]  d Ewald  =-0.8927687E-02 0.218E-06


--------------------------------------------------------------------------------------------------------


    POTLOK:  cpu time      1.5283: real time      1.6169


--------------------------------------------------------------------------------------------------------


 NEB: the previous image is higher in energy: T
 NEB: the next image is higher in energy    : F
 NEB: only prev energy greater

 NEB: Tangent
 ----------------------------------------------
     -0.04848      0.00489     -0.05698
     -0.00834     -0.04784     -0.08713
      0.08550     -0.08797     -0.31719
     -0.00087     -0.00631     -0.21384
      0.02752      0.00440      0.29678
     -0.07684      0.13475      0.38634
     -0.02601      0.04399      0.07361
      0.01190     -0.01803      0.21768
     -0.11753     -0.24880      0.11562
     -0.10877     -0.00282     -0.24903
      0.07512      0.02869      0.16880
     -0.07877      0.10995      0.11129
      0.01365     -0.09477     -0.32355
      0.20162      0.11610      0.00202
      0.09654      0.18313      0.14110
      0.03701     -0.05051      0.07257
      0.00010     -0.06771     -0.17846

 NEB: forces: par spring, perp REAL, dneb     0.025549    0.055014    0.000000
 NEB: distance to prev, next image, angle between     1.319202    1.314092   97.609108
 NEB: projections on to tangent (spring, REAL)    -0.025549    0.014677

 stress matrix after NEB project (eV)
     -1.96962      0.04877      0.07942
      0.04877     -1.89455     -0.00867
      0.07942     -0.00867     -2.04997
  FORCES: max atom, RMS     0.043120    0.014711
  FORCE total and by dimension    0.060657    0.033695
  Stress total and by dimension    3.418866    2.049974
 Quasi-Newton relaxation of ions (Broydens 2nd method)
  g(Force)  = 0.418E-03   g(Stress)= 0.000E+00

 retain information from N=  1 steps
 eigenvalues of (default step * inverse Hessian matrix)
  average eigenvalue of G=   1.6672
 eigenvalue spectrum of G is  1.6672


--------------------------------------------------------------------------------------------------------


    WAVPRE:  cpu time      1.8214: real time      2.2753
    FEWALD:  cpu time      0.0005: real time      0.0005
    ORTHCH:  cpu time      0.1270: real time      0.1352
     LOOP+:  cpu time     17.2370: real time     21.5368


--------------------------------------- Iteration    108(   1)  ---------------------------------------


    POTLOK:  cpu time      1.4219: real time      1.4530
    SETDIJ:  cpu time      0.0048: real time      0.0196
     EDDAV:  cpu time      1.8396: real time      2.6643
       DOS:  cpu time      0.0002: real time      0.0002
    CHARGE:  cpu time      0.2338: real time      0.4058
    MIXING:  cpu time      0.0552: real time      0.0712
    --------------------------------------------
      LOOP:  cpu time      3.5557: real time      4.6142

 eigenvalue-minimisations  :    60
 total energy-change (2. order) :-0.5109801E-04  (-0.5842124E-03)
 number of electron      41.9999975 magnetization 
 augmentation part        1.0305972 magnetization 

 Broyden mixing:
  rms(total) = 0.15128E-02    rms(broyden)= 0.15034E-02
  rms(prec ) = 0.15867E-02
  weight for this iteration     100.00

 Free energy of the ion-electron system (eV)
  ---------------------------------------------------
  alpha Z        PSCENC =         2.15216506
  Ewald energy   TEWEN  =      2559.65924888
  -Hartree energ DENC   =     -3693.71544852
  -exchange      EXHF   =         0.00000000
  -V(xc)+E(xc)   XCENC  =       140.43700434
  PAW double counting   =      3430.02421395    -3436.31957134
  entropy T*S    EENTRO =        -0.00000000
  eigenvalues    EBANDS =      -512.27845642
  atomic energy  EATOM  =      1406.67326350
  Solvation  Ediel_sol  =         0.00000000
  ---------------------------------------------------
  free energy    TOTEN  =      -103.36758054 eV

  energy without entropy =     -103.36758054  energy(sigma->0) =     -103.36758054


--------------------------------------------------------------------------------------------------------




--------------------------------------- Iteration    108(   2)  ---------------------------------------


    POTLOK:  cpu time      1.5975: real time      2.1922
    SETDIJ:  cpu time      0.0211: real time      0.0216
    EDDIAG:  cpu time      0.2868: real time      0.3012
  RMM-DIIS:  cpu time      0.7443: real time      1.5443
    ORTHCH:  cpu time      0.0039: real time      0.0039
       DOS:  cpu time      0.0001: real time      0.0001
    --------------------------------------------
      LOOP:  cpu time      2.6536: real time      4.0632

 eigenvalue-minimisations  :    47
 total energy-change (2. order) :-0.5413451E-05  (-0.7337735E-05)
 number of electron      41.9999975 magnetization 
 augmentation part        1.0305972 magnetization 

 Free energy of the ion-electron system (eV)
  ---------------------------------------------------
  alpha Z        PSCENC =         2.15216506
  Ewald energy   TEWEN  =      2559.65924888
  -Hartree energ DENC   =     -3693.71550514
  -exchange      EXHF   =         0.00000000
  -V(xc)+E(xc)   XCENC  =       140.43706125
  PAW double counting   =      3430.12053146    -3436.41589043
  entropy T*S    EENTRO =        -0.00000000
  eigenvalues    EBANDS =      -512.27846054
  atomic energy  EATOM  =      1406.67326350
  Solvation  Ediel_sol  =         0.00000000
  ---------------------------------------------------
  free energy    TOTEN  =      -103.36758595 eV

  energy without entropy =     -103.36758595  energy(sigma->0) =     -103.36758595


--------------------------------------------------------------------------------------------------------




 average (electrostatic) potential at core
  the test charge radii are     0.6991  0.5201  0.7089
  (the norm of the test charge is              1.0000)
       1 -58.7385       2 -58.7480       3 -59.0605       4 -58.8344       5 -58.9751
       6 -59.8416       7 -59.6428       8 -42.0609       9 -41.9207      10 -41.9464
      11 -42.0800      12 -42.0626      13 -42.0785      14 -41.9549      15 -41.9570
      16 -42.5032      17 -72.8913
 
 
 
 E-fermi :  -5.9429     XC(G=0):  -0.6129     alpha+bet : -0.2838

 Fermi energy:        -5.9428524114

 k-point     1 :       0.0000    0.0000    0.0000
  band No.  band energies     occupation 
      1     -22.2533      2.00000
      2     -21.1554      2.00000
      3     -19.1035      2.00000
      4     -18.6456      2.00000
      5     -15.9474      2.00000
      6     -15.3997      2.00000
      7     -12.9941      2.00000
      8     -12.6399      2.00000
      9     -12.4880      2.00000
     10     -10.7417      2.00000
     11     -10.6243      2.00000
     12     -10.2452      2.00000
     13      -9.8119      2.00000
     14      -9.5619      2.00000
     15      -8.7132      2.00000
     16      -8.5429      2.00000
     17      -8.2631      2.00000
     18      -7.7546      2.00000
     19      -7.5498      2.00000
     20      -7.5115      2.00000
     21      -6.1920      2.00000
     22      -1.0392      0.00000
     23      -0.7077      0.00000
     24      -0.2113      0.00000
     25      -0.1950      0.00000
     26      -0.0010      0.00000
     27       0.1197      0.00000
     28       0.1907      0.00000
     29       0.3862      0.00000
     30       0.5015      0.00000


--------------------------------------------------------------------------------------------------------


 soft charge-density along one line, spin component           1
         0         1         2         3         4         5         6         7         8         9
 total charge-density along one line
 
 pseudopotential strength for first ion, spin component:           1
 10.250  13.632  -0.000  -0.000   0.001  -0.001   0.001  -0.002
 13.632  18.129  -0.000  -0.001   0.001  -0.002   0.002  -0.003
 -0.000  -0.000  -4.380   0.001  -0.001   8.567  -0.001   0.001
 -0.000  -0.001   0.001  -4.372   0.001  -0.001   8.557  -0.002
  0.001   0.001  -0.001   0.001  -4.375   0.001  -0.002   8.561
 -0.001  -0.002   8.567  -0.001   0.001 -18.894   0.002  -0.002
  0.001   0.002  -0.001   8.557  -0.002   0.002 -18.887   0.001
 -0.002  -0.003   0.001  -0.002   8.561  -0.002   0.001 -18.888
 total augmentation occupancy for first ion, spin component:           1
  7.804  -3.382   0.402  -0.022   0.031   0.066  -0.006   0.012
 -3.382   1.513  -0.234   0.022  -0.036  -0.037   0.005  -0.010
  0.402  -0.234   1.902  -0.001   0.005   0.177   0.000  -0.001
 -0.022   0.022  -0.001   1.235  -0.170  -0.000   0.081  -0.026
  0.031  -0.036   0.005  -0.170   1.610  -0.001  -0.026   0.140
  0.066  -0.037   0.177  -0.000  -0.001   0.018   0.000  -0.000
 -0.006   0.005   0.000   0.081  -0.026   0.000   0.006  -0.003
  0.012  -0.010  -0.001  -0.026   0.140  -0.000  -0.003   0.013


------------------------ aborting loop because EDIFF is reached ----------------------------------------


    CHARGE:  cpu time      0.1644: real time      0.3346
    FORLOC:  cpu time      0.1131: real time      0.2211
    FORNL :  cpu time      0.1185: real time      0.2146
    STRESS:  cpu time      0.8907: real time      1.4897
    FORCOR:  cpu time      1.4941: real time      1.9363
    FORHAR:  cpu time      0.6345: real time      0.8754
    MIXING:  cpu time      0.0319: real time      0.0322
    OFIELD:  cpu time      0.0001: real time      0.0001

 ---------------------------------------------------------------------------------------------

         DFTD3 V3.0 Rev 1        
 Edisp (eV)   -0.19864

 E6    (eV) :    -0.0831
 E8    (eV) :    -0.1156
 % E8        : 58.17
    FORVDW:  cpu time      0.0066: real time      0.0066

  FORCE on cell =-STRESS in cart. coord.  units (eV):
  Direction    XX          YY          ZZ          XY          YZ          ZX
  --------------------------------------------------------------------------------------
  Alpha Z     2.15217     2.15217     2.15217
  Ewald    1077.08415  1092.29038   390.28358   344.34974  -161.14835  -718.37615
  Hartree  1348.25552  1401.57218   943.89056   244.15245  -124.71981  -531.82984
  E(xc)    -152.53085  -153.06251  -154.27864     0.47403    -0.14183    -0.71347
  Local   -2814.21694 -2900.58531 -1763.23687  -578.20232   283.29251  1242.70474
  n-local   -63.54483   -60.53386   -59.10702    -1.24738     0.32101     0.01241
  augment    -0.63873    -0.64267    -0.55562     0.00912    -0.00688    -0.02339
  Kinetic   601.49102   616.92882   638.80822    -9.47086     2.37920     8.27055
  Fock        0.00000     0.00000     0.00000     0.00000     0.00000     0.00000
  vdW        -0.01444    -0.01890    -0.00580    -0.01617     0.00937     0.02405
  -------------------------------------------------------------------------------------
  Total      -1.96294    -1.89971    -2.04942     0.04860    -0.01477     0.06891
  in kB      -0.86073    -0.83300    -0.89865     0.02131    -0.00648     0.03022
  external pressure =       -0.86 kB  Pullay stress =        0.00 kB


 VOLUME and BASIS-vectors are now :
 -----------------------------------------------------------------------------
  energy-cutoff  :      400.00
  volume of cell :     3653.87
      direct lattice vectors                 reciprocal lattice vectors
    15.402250290  0.000000000  0.000000000     0.064925578  0.000000000  0.000000000
     0.000000000 15.402250290  0.000000000     0.000000000  0.064925578  0.000000000
     0.000000000  0.000000000 15.402250290     0.000000000  0.000000000  0.064925578

  length of vectors
    15.402250290 15.402250290 15.402250290     0.064925578  0.064925578  0.064925578


 FORCES acting on ions
    electron-ion (+dipol)            ewald-force                    non-local-force                 convergence-correction
 -----------------------------------------------------------------------------------------------
   0.140E+03 0.123E+03 -.877E+02   -.141E+03 -.124E+03 0.881E+02   0.698E+00 0.454E+00 -.433E+00   -.532E-03 -.756E-03 -.559E-03
   0.156E+03 -.938E+02 -.931E+02   -.157E+03 0.938E+02 0.936E+02   0.108E+01 -.469E-01 -.543E+00   -.132E-02 0.102E-03 -.565E-03
   0.337E+01 -.152E+03 -.824E+02   -.362E+01 0.153E+03 0.834E+02   0.250E+00 -.944E+00 -.999E+00   -.178E-02 0.799E-03 0.137E-03
   -.347E+02 0.171E+03 -.611E+02   0.348E+02 -.172E+03 0.612E+02   -.139E+00 0.688E+00 -.150E+00   0.425E-03 -.322E-03 -.138E-02
   -.485E+02 0.117E+03 0.114E+03   0.488E+02 -.119E+03 -.114E+03   -.309E+00 0.128E+01 0.184E+00   0.208E-02 0.206E-02 0.676E-03
   0.181E+02 -.525E+02 0.955E+02   -.222E+02 0.502E+02 -.942E+02   0.409E+01 0.228E+01 -.129E+01   0.141E-02 -.133E-02 -.609E-04
   -.124E+02 -.357E+02 0.420E+02   0.964E+01 0.345E+02 -.412E+02   0.276E+01 0.120E+01 -.786E+00   0.350E-04 -.770E-02 -.653E-02
   0.643E+02 0.468E+02 -.283E+02   -.687E+02 -.499E+02 0.300E+02   0.442E+01 0.319E+01 -.168E+01   0.629E-05 -.177E-03 0.125E-04
   -.541E+02 0.224E+02 -.603E+02   0.579E+02 -.219E+02 0.640E+02   -.382E+01 -.537E+00 -.377E+01   0.300E-04 -.291E-03 -.101E-03
   0.424E+01 0.857E+02 0.687E+00   -.483E+01 -.911E+02 -.137E+01   0.589E+00 0.547E+01 0.686E+00   0.530E-04 0.671E-04 -.338E-03
   0.695E+02 -.379E+02 -.299E+02   -.742E+02 0.406E+02 0.316E+02   0.472E+01 -.269E+01 -.174E+01   -.281E-03 -.192E-03 -.584E-04
   -.488E+02 -.210E+02 -.661E+02   0.528E+02 0.208E+02 0.698E+02   -.394E+01 0.257E+00 -.376E+01   -.516E-03 0.255E-03 0.560E-03
   0.187E+02 -.844E+02 -.546E+01   -.199E+02 0.898E+02 0.490E+01   0.115E+01 -.545E+01 0.546E+00   -.579E-03 -.759E-04 0.112E-03
   0.327E+02 0.407E+02 0.702E+02   -.358E+02 -.427E+02 -.744E+02   0.311E+01 0.192E+01 0.421E+01   0.313E-03 0.513E-03 0.662E-04
   -.685E+02 0.426E+02 0.262E+02   0.738E+02 -.442E+02 -.273E+02   -.524E+01 0.166E+01 0.109E+01   0.155E-03 0.722E-03 0.248E-03
   0.495E+02 -.296E+02 0.689E+02   -.532E+02 0.311E+02 -.729E+02   0.363E+01 -.157E+01 0.395E+01   0.334E-03 0.153E-03 0.187E-03
   -.267E+03 -.134E+03 0.921E+02   0.302E+03 0.149E+03 -.102E+03   -.358E+02 -.157E+02 0.954E+01   0.470E-02 -.156E-01 -.195E-01
 -----------------------------------------------------------------------------------------------
   0.227E+02 0.852E+01 -.503E+01   -.171E-12 0.000E+00 0.000E+00   -.227E+02 -.850E+01 0.505E+01   0.454E-02 -.218E-01 -.271E-01
 
 
 POSITION                                       TOTAL-FORCE (eV/Angst)
 -----------------------------------------------------------------------------------
      5.21073      6.77101      8.76346        -0.001888      0.002390     -0.001878
      5.14237      8.10946      8.78067         0.002106     -0.000590     -0.003569
      6.33776      8.89933      8.32735         0.006852     -0.006830     -0.016213
      6.47862      6.12422      8.28348        -0.000687      0.000266     -0.007377
      6.96703      6.76515      6.96749        -0.003149     -0.004164      0.008701
      6.87855      8.32756      6.97946        -0.006388      0.002281      0.009589
      8.16514      8.92610      6.63351        -0.019164     -0.002532      0.007924
      4.36905      6.15257      9.08338        -0.001507      0.003728      0.006470
      7.26491      6.24646      9.05217        -0.001716     -0.002128      0.000781
      6.35645      5.04115      8.14044        -0.004305     -0.000303     -0.000521
      4.24409      8.63446      9.11286         0.007631      0.006821      0.005671
      7.14294      8.83397      9.08156         0.007666     -0.005394     -0.007717
      6.10721      9.96696      8.20887         0.011370     -0.005620     -0.013495
      6.34623      6.39373      6.13987         0.002098     -0.005322     -0.001301
      7.99856      6.44741      6.76028        -0.000839      0.001093      0.000010
      6.16836      8.64118      6.19680        -0.005053     -0.008054     -0.003716
      9.20469      9.38233      6.35830         0.006972      0.024358      0.016642
 -----------------------------------------------------------------------------------
    total drift:                                0.002261     -0.001666     -0.001733


--------------------------------------------------------------------------------------------------------



  FREE ENERGIE OF THE ION-ELECTRON SYSTEM (eV)
  ---------------------------------------------------
  free  energy   TOTEN  =      -103.56622270 eV

  energy  without entropy=     -103.56622270  energy(sigma->0) =     -103.56622270
 
 d Force = 0.5588798E-04[ 0.476E-04, 0.642E-04]  d Energy = 0.5989475E-04-0.401E-05
 d Force =-0.5714927E-01[-0.570E-01,-0.573E-01]  d Ewald  =-0.5714928E-01 0.902E-08


--------------------------------------------------------------------------------------------------------


    POTLOK:  cpu time      0.8753: real time      1.3703


--------------------------------------------------------------------------------------------------------


 NEB: the previous image is higher in energy: T
 NEB: the next image is higher in energy    : F
 NEB: only prev energy greater

 NEB: Tangent
 ----------------------------------------------
     -0.04856      0.00495     -0.05695
     -0.00824     -0.04783     -0.08723
      0.08578     -0.08823     -0.31752
     -0.00093     -0.00636     -0.21394
      0.02748      0.00429      0.29695
     -0.07702      0.13477      0.38644
     -0.02621      0.04427      0.07350
      0.01172     -0.01788      0.21771
     -0.11755     -0.24888      0.11573
     -0.10901     -0.00295     -0.24848
      0.07528      0.02887      0.16848
     -0.07844      0.10952      0.11120
      0.01415     -0.09498     -0.32371
      0.20168      0.11590      0.00197
      0.09661      0.18318      0.14069
      0.03678     -0.05063      0.07259
     -0.00024     -0.06688     -0.17804

 NEB: forces: par spring, perp REAL, dneb     0.024234    0.050232    0.000000
 NEB: distance to prev, next image, angle between     1.318973    1.314126   97.667550
 NEB: projections on to tangent (spring, REAL)    -0.024234    0.019173

 stress matrix after NEB project (eV)
     -1.96294      0.04860      0.06891
      0.04860     -1.89971     -0.01477
      0.06891     -0.01477     -2.04942
  FORCES: max atom, RMS     0.037226    0.013527
  FORCE total and by dimension    0.055772    0.027261
  Stress total and by dimension    3.417136    2.049421
 Quasi-Newton relaxation of ions (Broydens 2nd method)
  g(Force)  = 0.386E-03   g(Stress)= 0.000E+00

 retain information from N=  2 steps
 eigenvalues of (default step * inverse Hessian matrix)
  average eigenvalue of G=   4.3533
 eigenvalue spectrum of G is  4.3533  4.3533


--------------------------------------------------------------------------------------------------------


  
 reached required accuracy - stopping structural energy minimisation
     LOOP+:  cpu time     12.3377: real time     18.4609
    4ORBIT:  cpu time      0.0000: real time      0.0000

 total amount of memory used by VASP MPI-rank0   277942. kBytes
=======================================================================

   base      :      30000. kBytes
   nonl-proj :      15437. kBytes
   fftplans  :      71598. kBytes
   grid      :     152883. kBytes
   one-center:         26. kBytes
   wavefun   :       7998. kBytes
 
  
  
 General timing and accounting informations for this job:
 ========================================================
  
                  Total CPU time used (sec):     2238.240
                            User time (sec):     2061.147
                          System time (sec):      177.093
                         Elapsed time (sec):     3151.787
  
                   Maximum memory used (kb):     1149984.
                   Average memory used (kb):          N/A
  
                          Minor page faults:     16288536
                          Major page faults:          255
                 Voluntary context switches:         1700
