<?xml version="1.0" encoding="ISO-8859-1"?>
<modeling>
 <generator>
  <i name="program" type="string">vasp </i>
  <i name="version" type="string">6.3.2  </i>
  <i name="subversion" type="string">27Jun22 (build Oct 05 2023 17:59:42) gamma-only                       parallel </i>
  <i name="platform" type="string">LinuxIFC </i>
  <i name="date" type="string">2024 04 05 </i>
  <i name="time" type="string">18:28:44 </i>
 </generator>
 <incar>
  <i type="string" name="PREC">NORMAL</i>
  <i type="string" name="ALGO">Fast</i>
  <i type="int" name="ISPIN">     1</i>
  <i type="int" name="IBRION">     1</i>
  <i name="EDIFF">      0.00001000</i>
  <i name="EDIFFG">     -0.05000000</i>
  <i type="int" name="NSW">  5000</i>
  <i name="ENCUT">    400.00000000</i>
  <i name="POTIM">      0.10000000</i>
  <i type="int" name="ISMEAR">     0</i>
  <i name="SIGMA">      0.05000000</i>
  <i type="logical" name="LWAVE"> F  </i>
  <i type="logical" name="LCHARG"> F  </i>
  <i type="string" name="GGA">PE</i>
  <i type="int" name="IVDW">    11</i>
  <i name="SPRING">     -5.00000000</i>
 </incar>
 <primitive_cell>
  <structure name="primitive_cell" >
   <crystal>
    <varray name="basis" >
     <v>      15.40225029       0.00000000       0.00000000 </v>
     <v>       0.00000000      15.40225029       0.00000000 </v>
     <v>       0.00000000       0.00000000      15.40225029 </v>
    </varray>
    <i name="volume">   3653.86527022 </i>
    <varray name="rec_basis" >
     <v>       0.06492558       0.00000000       0.00000000 </v>
     <v>       0.00000000       0.06492558       0.00000000 </v>
     <v>       0.00000000       0.00000000       0.06492558 </v>
    </varray>
   </crystal>
   <varray name="positions" >
    <v>       0.33971429       0.43936223       0.56946103 </v>
    <v>       0.33441179       0.52615209       0.56847782 </v>
    <v>       0.41336030       0.57553170       0.54309087 </v>
    <v>       0.42358908       0.40068747       0.54153166 </v>
    <v>       0.44729083       0.43837408       0.44922747 </v>
    <v>       0.44532864       0.53975540       0.45165966 </v>
    <v>       0.52897831       0.57769973       0.43026613 </v>
    <v>       0.28246075       0.39914736       0.57906053 </v>
    <v>       0.47665303       0.42197794       0.58355135 </v>
    <v>       0.42235475       0.32964617       0.54192313 </v>
    <v>       0.27277231       0.55989736       0.57699495 </v>
    <v>       0.46789881       0.56166892       0.58634483 </v>
    <v>       0.40298902       0.64587936       0.54275591 </v>
    <v>       0.39909657       0.41358837       0.40328772 </v>
    <v>       0.51118024       0.41453527       0.42888371 </v>
    <v>       0.39840296       0.56301927       0.40403265 </v>
    <v>       0.59544798       0.61146025       0.41705441 </v>
   </varray>
  </structure>
  <varray name="primitive_index" >
   <v type="int" >        1 </v>
   <v type="int" >        2 </v>
   <v type="int" >        3 </v>
   <v type="int" >        4 </v>
   <v type="int" >        5 </v>
   <v type="int" >        6 </v>
   <v type="int" >        7 </v>
   <v type="int" >        8 </v>
   <v type="int" >        9 </v>
   <v type="int" >       10 </v>
   <v type="int" >       11 </v>
   <v type="int" >       12 </v>
   <v type="int" >       13 </v>
   <v type="int" >       14 </v>
   <v type="int" >       15 </v>
   <v type="int" >       16 </v>
   <v type="int" >       17 </v>
  </varray>
 </primitive_cell>
 <kpoints>
  <generation param="Monkhorst-Pack">
   <v type="int" name="divisions">       1        1        1 </v>
   <v name="usershift">      0.00000000       0.00000000       0.00000000 </v>
   <v name="genvec1">      1.00000000       0.00000000       0.00000000 </v>
   <v name="genvec2">      0.00000000       1.00000000       0.00000000 </v>
   <v name="genvec3">      0.00000000       0.00000000       1.00000000 </v>
   <v name="shift">      0.00000000       0.00000000       0.00000000 </v>
  </generation>
  <varray name="kpointlist" >
   <v>       0.00000000       0.00000000       0.00000000 </v>
  </varray>
  <varray name="weights" >
   <v>       1.00000000 </v>
  </varray>
 </kpoints>
 <parameters>
  <separator name="general" >
   <i type="string" name="SYSTEM">unknown system</i>
   <i type="logical" name="LCOMPAT"> F  </i>
  </separator>
  <separator name="electronic" >
   <i type="string" name="PREC">normal</i>
   <i name="ENMAX">    400.00000000</i>
   <i name="ENAUG">    644.87300000</i>
   <i name="EDIFF">      0.00001000</i>
   <i type="int" name="IALGO">    68</i>
   <i type="int" name="IWAVPR">    11</i>
   <i type="int" name="NBANDS">    30</i>
   <i type="int" name="NBANDSLOW">    -1</i>
   <i type="int" name="NBANDSHIGH">    -1</i>
   <i name="NELECT">     42.00000000</i>
   <i type="int" name="TURBO">     0</i>
   <i type="int" name="IRESTART">     0</i>
   <i type="int" name="NREBOOT">     0</i>
   <i type="int" name="NMIN">     0</i>
   <i name="EREF">      0.00000000</i>
   <separator name="electronic smearing" >
    <i type="int" name="ISMEAR">     0</i>
    <i name="SIGMA">      0.05000000</i>
    <i name="KSPACING">      0.50000000</i>
    <i type="logical" name="KGAMMA"> T  </i>
    <i type="logical" name="KBLOWUP"> T  </i>
   </separator>
   <separator name="electronic projectors" >
    <i type="logical" name="LREAL"> F  </i>
    <v name="ROPT">      0.00000000      0.00000000      0.00000000</v>
    <i type="int" name="LMAXPAW">  -100</i>
    <i type="int" name="LMAXMIX">     2</i>
    <i type="logical" name="NLSPLINE"> F  </i>
   </separator>
   <separator name="electronic startup" >
    <i type="int" name="ISTART">     0</i>
    <i type="int" name="ICHARG">     2</i>
    <i type="int" name="INIWAV">     1</i>
   </separator>
   <separator name="electronic spin" >
    <i type="int" name="ISPIN">     1</i>
    <i type="logical" name="LNONCOLLINEAR"> F  </i>
    <v name="MAGMOM">      1.00000000      1.00000000      1.00000000      1.00000000      1.00000000      1.00000000      1.00000000      1.00000000      1.00000000      1.00000000      1.00000000      1.00000000      1.00000000      1.00000000      1.00000000      1.00000000      1.00000000</v>
    <i name="NUPDOWN">     -1.00000000</i>
    <i type="logical" name="LSORBIT"> F  </i>
    <v name="SAXIS">      0.00000000      0.00000000      1.00000000</v>
    <i type="logical" name="LSPIRAL"> F  </i>
    <v name="QSPIRAL">      0.00000000      0.00000000      0.00000000</v>
    <i type="logical" name="LZEROZ"> F  </i>
   </separator>
   <separator name="electronic exchange-correlation" >
    <i type="logical" name="LASPH"> F  </i>
    <i type="logical" name="LMETAGGA"> F  </i>
   </separator>
   <separator name="electronic convergence" >
    <i type="int" name="NELM">    60</i>
    <i type="int" name="NELMDL">    -5</i>
    <i type="int" name="NELMIN">     2</i>
    <i name="ENINI">    400.00000000</i>
    <separator name="electronic convergence detail" >
     <i type="logical" name="LDIAG"> T  </i>
     <i type="logical" name="LSUBROT"> F  </i>
     <i name="WEIMIN">      0.00100000</i>
     <i name="EBREAK">      0.00000008</i>
     <i name="DEPER">      0.30000000</i>
     <i type="int" name="NRMM">     4</i>
     <i name="TIME">      0.40000000</i>
    </separator>
   </separator>
   <separator name="electronic mixer" >
    <i name="AMIX">      0.40000000</i>
    <i name="BMIX">      1.00000000</i>
    <i name="AMIN">      0.10000000</i>
    <i name="AMIX_MAG">      1.60000000</i>
    <i name="BMIX_MAG">      1.00000000</i>
    <separator name="electronic mixer details" >
     <i type="int" name="IMIX">     4</i>
     <i type="logical" name="MIXFIRST"> F  </i>
     <i type="int" name="MAXMIX">   -45</i>
     <i name="WC">    100.00000000</i>
     <i type="int" name="INIMIX">     1</i>
     <i type="int" name="MIXPRE">     1</i>
     <i type="int" name="MREMOVE">     5</i>
    </separator>
   </separator>
   <separator name="electronic dipolcorrection" >
    <i type="logical" name="LDIPOL"> F  </i>
    <i type="logical" name="LMONO"> F  </i>
    <i type="int" name="IDIPOL">     0</i>
    <i name="EPSILON">      1.00000000</i>
    <v name="DIPOL">   -100.00000000   -100.00000000   -100.00000000</v>
    <i name="EFIELD">      0.00000000</i>
   </separator>
  </separator>
  <separator name="grids" >
   <i type="int" name="NGX">    80</i>
   <i type="int" name="NGY">    80</i>
   <i type="int" name="NGZ">    80</i>
   <i type="int" name="NGXF">   160</i>
   <i type="int" name="NGYF">   160</i>
   <i type="int" name="NGZF">   160</i>
   <i type="logical" name="ADDGRID"> F  </i>
  </separator>
  <separator name="ionic" >
   <i type="int" name="NSW">  5000</i>
   <i type="int" name="IBRION">     1</i>
   <i type="int" name="MDALGO">     0</i>
   <i type="int" name="ISIF">     2</i>
   <i name="PSTRESS">      0.00000000</i>
   <i name="EDIFFG">     -0.05000000</i>
   <i type="int" name="NFREE">     0</i>
   <i name="POTIM">      0.10000000</i>
   <i name="SMASS">     -3.00000000</i>
   <i name="SCALEE">      1.00000000</i>
  </separator>
  <separator name="ionic md" >
   <i name="TEBEG">      0.00010000</i>
   <i name="TEEND">      0.00010000</i>
   <i type="int" name="NBLOCK">     1</i>
   <i type="int" name="KBLOCK">  5000</i>
   <i type="int" name="NPACO">   256</i>
   <i name="APACO">     10.00000000</i>
  </separator>
  <separator name="symmetry" >
   <i type="int" name="ISYM">     2</i>
   <i name="SYMPREC">      0.00001000</i>
  </separator>
  <separator name="dos" >
   <i type="int" name="LORBIT">     0</i>
   <v name="RWIGS">     -1.00000000     -1.00000000     -1.00000000</v>
   <i type="int" name="NEDOS">   301</i>
   <i name="EMIN">     10.00000000</i>
   <i name="EMAX">    -10.00000000</i>
   <i name="EFERMI">      0.00000000</i>
  </separator>
  <separator name="writing" >
   <i type="int" name="NWRITE">     2</i>
   <i type="logical" name="LWAVE"> F  </i>
   <i type="logical" name="LDOWNSAMPLE"> F  </i>
   <i type="logical" name="LCHARG"> F  </i>
   <i type="logical" name="LPARD"> F  </i>
   <i type="logical" name="LVTOT"> F  </i>
   <i type="logical" name="LVHAR"> F  </i>
   <i type="logical" name="LELF"> F  </i>
   <i type="logical" name="LOPTICS"> F  </i>
   <v name="STM">      0.00000000      0.00000000      0.00000000      0.00000000      0.00000000      0.00000000      0.00000000</v>
  </separator>
  <separator name="performance" >
   <i type="int" name="NPAR">     2</i>
   <i type="int" name="NSIM">     4</i>
   <i type="int" name="NBLK">    -1</i>
   <i type="logical" name="LPLANE"> T  </i>
   <i type="logical" name="LSCALAPACK"> T  </i>
   <i type="logical" name="LSCAAWARE"> F  </i>
   <i type="logical" name="LSCALU"> F  </i>
   <i type="logical" name="LASYNC"> F  </i>
   <i type="logical" name="LORBITALREAL"> F  </i>
  </separator>
  <separator name="miscellaneous" >
   <i type="int" name="IDIOT">     3</i>
   <i type="int" name="PHON_NSTRUCT">    -1</i>
   <i type="logical" name="LMUSIC"> F  </i>
   <v name="POMASS">     12.01100000      1.00000000     14.00100000</v>
   <v name="DARWINR">      0.00000000      0.00000000      0.00000000</v>
   <v name="DARWINV">      1.00000000      1.00000000      1.00000000</v>
   <i type="logical" name="LCORR"> T  </i>
  </separator>
  <i type="logical" name="GGA_COMPAT"> T  </i>
  <i type="logical" name="LBERRY"> F  </i>
  <i type="int" name="ICORELEVEL">     0</i>
  <i type="logical" name="LDAU"> F  </i>
  <i type="int" name="I_CONSTRAINED_M">     0</i>
  <separator name="electronic exchange-correlation" >
   <i type="string" name="GGA">PE</i>
   <i type="int" name="VOSKOWN">     0</i>
   <i type="logical" name="LHFCALC"> F  </i>
   <i type="string" name="PRECFOCK"></i>
   <i type="logical" name="LSYMGRAD"> F  </i>
   <i type="logical" name="LHFONE"> F  </i>
   <i type="logical" name="LRHFCALC"> F  </i>
   <i type="logical" name="LTHOMAS"> F  </i>
   <i type="logical" name="LMODELHF"> F  </i>
   <i type="logical" name="LFOCKACE"> F  </i>
   <i name="ENCUT4O">     -1.00000000</i>
   <i type="int" name="EXXOEP">     0</i>
   <i type="int" name="FOURORBIT">     0</i>
   <i name="AEXX">      0.00000000</i>
   <i name="HFALPHA">      0.00000000</i>
   <i name="MCALPHA">      0.00000000</i>
   <i name="ALDAX">      1.00000000</i>
   <i name="AGGAX">      1.00000000</i>
   <i name="ALDAC">      1.00000000</i>
   <i name="AGGAC">      1.00000000</i>
   <i type="int" name="NKREDX">     1</i>
   <i type="int" name="NKREDY">     1</i>
   <i type="int" name="NKREDZ">     1</i>
   <i type="logical" name="SHIFTRED"> F  </i>
   <i type="logical" name="ODDONLY"> F  </i>
   <i type="logical" name="EVENONLY"> F  </i>
   <i type="int" name="LMAXFOCK">     0</i>
   <i type="int" name="NMAXFOCKAE">     0</i>
   <i type="logical" name="LFOCKAEDFT"> F  </i>
   <i name="HFSCREEN">      0.00000000</i>
   <i name="HFSCREENC">      0.00000000</i>
   <i type="int" name="NBANDSGWLOW">     0</i>
  </separator>
  <separator name="vdW DFT" >
   <i type="logical" name="LUSE_VDW"> F  </i>
   <i name="Zab_VDW">     -0.84910000</i>
   <i name="PARAM1">      0.12340000</i>
   <i name="PARAM2">      1.00000000</i>
   <i name="PARAM3">      0.00000000</i>
  </separator>
  <separator name="model GW" >
   <i type="int" name="MODEL_GW">     0</i>
   <i name="MODEL_EPS0">    128.95995071</i>
   <i name="MODEL_ALPHA">      1.00000000</i>
  </separator>
  <separator name="linear response parameters" >
   <i type="logical" name="LEPSILON"> F  </i>
   <i type="logical" name="LRPA"> F  </i>
   <i type="logical" name="LNABLA"> F  </i>
   <i type="logical" name="LVEL"> F  </i>
   <i name="CSHIFT">      0.10000000</i>
   <i name="OMEGAMAX">     -1.00000000</i>
   <i name="DEG_THRESHOLD">      0.00200000</i>
   <i name="RTIME">     -0.10000000</i>
   <i name="WPLASMAI">      0.00000000</i>
   <v name="DFIELD">      0.00000000      0.00000000      0.00000000</v>
   <v name="WPLASMA">      0.00000000      0.00000000      0.00000000      0.00000000      0.00000000      0.00000000      0.00000000      0.00000000      0.00000000</v>
  </separator>
  <separator name="orbital magnetization" >
   <i type="logical" name="NUCIND"> F  </i>
   <v name="MAGPOS">      0.00000000      0.00000000      0.00000000</v>
   <i type="logical" name="LNICSALL"> T  </i>
   <i type="logical" name="ORBITALMAG"> F  </i>
   <i type="logical" name="LMAGBLOCH"> F  </i>
   <i type="logical" name="LCHIMAG"> F  </i>
   <i type="logical" name="LGAUGE"> T  </i>
   <i type="int" name="MAGATOM">     0</i>
   <v name="MAGDIPOL">      0.00000000      0.00000000      0.00000000</v>
   <v name="AVECCONST">      0.00000000      0.00000000      0.00000000</v>
  </separator>
  <separator name="response functions" >
   <i type="logical" name="LFINITE_TEMPERATURE"> F  </i>
   <i type="logical" name="LADDER"> F  </i>
   <i type="logical" name="LRPAFORCE"> F  </i>
   <i type="logical" name="LFXC"> F  </i>
   <i type="logical" name="LHARTREE"> T  </i>
   <i type="int" name="IBSE">     0</i>
   <v type="int" name="KPOINT">    -1     0     0     0</v>
   <i type="logical" name="LTCTC"> F  </i>
   <i type="logical" name="LTCTE"> F  </i>
   <i type="logical" name="LTETE"> F  </i>
   <i type="logical" name="LTRIPLET"> F  </i>
   <i type="logical" name="LFXCEPS"> F  </i>
   <i type="logical" name="LFXHEG"> F  </i>
   <i type="int" name="NATURALO">     2</i>
   <i type="logical" name="LHOLEGF"> F  </i>
   <i type="logical" name="L2ORDER"> F  </i>
   <i type="logical" name="LDMP1"> F  </i>
   <i type="logical" name="LMP2LT"> F  </i>
   <i type="logical" name="LSMP2LT"> F  </i>
   <i type="logical" name="LGWLF"> F  </i>
   <i name="ENCUTGW">     -2.00000000</i>
   <i name="ENCUTGWSOFT">     -2.00000000</i>
   <i name="ENCUTLF">     -1.00000000</i>
   <i type="logical" name="LESF_SPLINES"> F  </i>
   <i type="int" name="LMAXMP2">    -1</i>
   <i name="SCISSOR">      0.00000000</i>
   <i type="int" name="NOMEGA">     0</i>
   <i type="int" name="NOMEGAR">     0</i>
   <i type="int" name="NBANDSGW">    -1</i>
   <i type="int" name="NBANDSO">    -1</i>
   <i type="int" name="NBANDSV">    -1</i>
   <i type="int" name="NELMGW">     1</i>
   <i type="int" name="NELMHF">     1</i>
   <i type="int" name="DIM">     3</i>
   <i type="int" name="IESPILON">     4</i>
   <i type="int" name="ANTIRES">     0</i>
   <i name="OMEGAMAX">    -30.00000000</i>
   <i name="OMEGAMIN">    -30.00000000</i>
   <i name="OMEGATL">   -200.00000000</i>
   <i type="int" name="OMEGAGRID">     0</i>
   <i name="CSHIFT">     -0.10000000</i>
   <i type="logical" name="LSELFENERGY"> F  </i>
   <i type="logical" name="LSPECTRAL"> F  </i>
   <i type="logical" name="LSPECTRALGW"> F  </i>
   <i type="logical" name="LSINGLES"> F  </i>
   <i type="logical" name="LFERMIGW"> F  </i>
   <i type="logical" name="ODDONLYGW"> F  </i>
   <i type="logical" name="EVENONLYGW"> F  </i>
   <i type="int" name="NKREDLFX">     1</i>
   <i type="int" name="NKREDLFY">     1</i>
   <i type="int" name="NKREDLFZ">     1</i>
   <i type="int" name="MAXMEM">  2800</i>
   <i type="int" name="TELESCOPE">     0</i>
   <i type="int" name="NTAUPAR">    -1</i>
   <i type="int" name="NOMEGAPAR">    -1</i>
   <i name="DAMP_NEWTON">      0.80000001</i>
   <i name="LAMBDA">      1.00000000</i>
  </separator>
  <separator name="External order field" >
   <i name="OFIELD_KAPPA">      0.00000000</i>
   <v name="OFIELD_K">      0.00000000      0.00000000      0.00000000</v>
   <i name="OFIELD_Q6_NEAR">      0.00000000</i>
   <i name="OFIELD_Q6_FAR">      0.00000000</i>
   <i name="OFIELD_A">      0.00000000</i>
  </separator>
  <separator name="optional k-points parameters" >
   <i type="int" name="KPOINTS_OPT_MODE">     1</i>
   <i type="logical" name="LKPOINTS_OPT"> F  </i>
  </separator>
 </parameters>
 <atominfo>
  <atoms>      17 </atoms>
  <types>       3 </types>
  <array name="atoms" >
   <dimension dim="1">ion</dimension>
   <field type="string">element</field>
   <field type="int">atomtype</field>
   <set>
    <rc><c>C </c><c>   1</c></rc>
    <rc><c>C </c><c>   1</c></rc>
    <rc><c>C </c><c>   1</c></rc>
    <rc><c>C </c><c>   1</c></rc>
    <rc><c>C </c><c>   1</c></rc>
    <rc><c>C </c><c>   1</c></rc>
    <rc><c>C </c><c>   1</c></rc>
    <rc><c>H </c><c>   2</c></rc>
    <rc><c>H </c><c>   2</c></rc>
    <rc><c>H </c><c>   2</c></rc>
    <rc><c>H </c><c>   2</c></rc>
    <rc><c>H </c><c>   2</c></rc>
    <rc><c>H </c><c>   2</c></rc>
    <rc><c>H </c><c>   2</c></rc>
    <rc><c>H </c><c>   2</c></rc>
    <rc><c>H </c><c>   2</c></rc>
    <rc><c>N </c><c>   3</c></rc>
   </set>
  </array>
  <array name="atomtypes" >
   <dimension dim="1">type</dimension>
   <field type="int">atomspertype</field>
   <field type="string">element</field>
   <field>mass</field>
   <field>valence</field>
   <field type="string">pseudopotential</field>
   <set>
    <rc><c>   7</c><c>C </c><c>     12.01100000</c><c>      4.00000000</c><c>  PAW_PBE C 08Apr2002                   </c></rc>
    <rc><c>   9</c><c>H </c><c>      1.00000000</c><c>      1.00000000</c><c>  PAW_PBE H 15Jun2001                   </c></rc>
    <rc><c>   1</c><c>N </c><c>     14.00100000</c><c>      5.00000000</c><c>  PAW_PBE N 08Apr2002                   </c></rc>
   </set>
  </array>
 </atominfo>
 <structure name="initialpos" >
  <crystal>
   <varray name="basis" >
    <v>      15.40225029       0.00000000       0.00000000 </v>
    <v>       0.00000000      15.40225029       0.00000000 </v>
    <v>       0.00000000       0.00000000      15.40225029 </v>
   </varray>
   <i name="volume">   3653.86527022 </i>
   <varray name="rec_basis" >
    <v>       0.06492558       0.00000000       0.00000000 </v>
    <v>       0.00000000       0.06492558       0.00000000 </v>
    <v>       0.00000000       0.00000000       0.06492558 </v>
   </varray>
  </crystal>
  <varray name="positions" >
   <v>       0.33971429       0.43936223       0.56946103 </v>
   <v>       0.33441179       0.52615209       0.56847782 </v>
   <v>       0.41336030       0.57553170       0.54309087 </v>
   <v>       0.42358908       0.40068747       0.54153166 </v>
   <v>       0.44729083       0.43837408       0.44922747 </v>
   <v>       0.44532864       0.53975540       0.45165966 </v>
   <v>       0.52897831       0.57769973       0.43026613 </v>
   <v>       0.28246075       0.39914736       0.57906053 </v>
   <v>       0.47665303       0.42197794       0.58355135 </v>
   <v>       0.42235475       0.32964617       0.54192313 </v>
   <v>       0.27277231       0.55989736       0.57699495 </v>
   <v>       0.46789881       0.56166892       0.58634483 </v>
   <v>       0.40298902       0.64587936       0.54275591 </v>
   <v>       0.39909657       0.41358837       0.40328772 </v>
   <v>       0.51118024       0.41453527       0.42888371 </v>
   <v>       0.39840296       0.56301927       0.40403265 </v>
   <v>       0.59544798       0.61146025       0.41705441 </v>
  </varray>
 </structure>
 <calculation>
  <scstep>
   <time name="dav">    2.15    2.16</time>
   <time name="total">    3.92    3.93</time>
   <energy>
    <i name="alphaZ">      2.15216506 </i>
    <i name="ewald">   2589.41346626 </i>
    <i name="hartreedc">  -3528.38639330 </i>
    <i name="XCdc">    131.31875587 </i>
    <i name="pawpsdc">    983.79330320 </i>
    <i name="pawaedc">   -989.05002801 </i>
    <i name="eentropy">     -0.00303336 </i>
    <i name="bandstr">   -267.47566391 </i>
    <i name="atom">   1406.67326350 </i>
    <i name="e_fr_energy">    328.43583531 </i>
    <i name="e_wo_entrp">    328.43886867 </i>
    <i name="e_0_energy">    328.43735199 </i>
   </energy>
  </scstep>
  <scstep>
   <time name="dav">    2.09    2.09</time>
   <time name="total">    2.09    2.09</time>
   <energy>
    <i name="e_fr_energy">     68.85142931 </i>
    <i name="e_wo_entrp">     68.85142931 </i>
    <i name="e_0_energy">     68.85142931 </i>
   </energy>
  </scstep>
  <scstep>
   <time name="dav">    2.32    2.32</time>
   <time name="total">    2.32    2.32</time>
   <energy>
    <i name="e_fr_energy">    -94.08600153 </i>
    <i name="e_wo_entrp">    -94.08600153 </i>
    <i name="e_0_energy">    -94.08600153 </i>
   </energy>
  </scstep>
  <scstep>
   <time name="dav">    2.17    2.18</time>
   <time name="total">    2.17    2.18</time>
   <energy>
    <i name="e_fr_energy">   -113.48604137 </i>
    <i name="e_wo_entrp">   -113.48604137 </i>
    <i name="e_0_energy">   -113.48604137 </i>
   </energy>
  </scstep>
  <scstep>
   <time name="dav">    2.67    2.68</time>
   <time name="total">    3.04    3.05</time>
   <energy>
    <i name="e_fr_energy">   -113.76651382 </i>
    <i name="e_wo_entrp">   -113.76651382 </i>
    <i name="e_0_energy">   -113.76651382 </i>
   </energy>
  </scstep>
  <scstep>
   <time name="diag">    0.38    0.39</time>
   <time name="diis">    1.93    1.93</time>
   <time name="orth">    0.02    0.02</time>
   <time name="total">    4.15    4.17</time>
   <energy>
    <i name="e_fr_energy">   -105.54415412 </i>
    <i name="e_wo_entrp">   -105.54415412 </i>
    <i name="e_0_energy">   -105.54415412 </i>
   </energy>
  </scstep>
  <scstep>
   <time name="diag">    0.58    0.58</time>
   <time name="diis">    3.00    3.00</time>
   <time name="orth">    0.01    0.02</time>
   <time name="total">    6.00    6.03</time>
   <energy>
    <i name="e_fr_energy">   -103.48522554 </i>
    <i name="e_wo_entrp">   -103.48522554 </i>
    <i name="e_0_energy">   -103.48522554 </i>
   </energy>
  </scstep>
  <scstep>
   <time name="diag">    0.52    0.52</time>
   <time name="diis">    2.10    2.19</time>
   <time name="orth">    0.02    0.03</time>
   <time name="total">    4.72    4.89</time>
   <energy>
    <i name="e_fr_energy">   -103.30546023 </i>
    <i name="e_wo_entrp">   -103.30546023 </i>
    <i name="e_0_energy">   -103.30546023 </i>
   </energy>
  </scstep>
  <scstep>
   <time name="diag">    0.63    0.63</time>
   <time name="diis">    3.25    3.25</time>
   <time name="orth">    0.02    0.02</time>
   <time name="total">    6.71    6.72</time>
   <energy>
    <i name="e_fr_energy">   -103.20045003 </i>
    <i name="e_wo_entrp">   -103.20045003 </i>
    <i name="e_0_energy">   -103.20045003 </i>
   </energy>
  </scstep>
  <scstep>
   <time name="diag">    0.61    0.61</time>
   <time name="diis">    3.21    3.21</time>
   <time name="orth">    0.01    0.02</time>
   <time name="total">    6.45    6.46</time>
   <energy>
    <i name="e_fr_energy">   -103.19587541 </i>
    <i name="e_wo_entrp">   -103.19587541 </i>
    <i name="e_0_energy">   -103.19587541 </i>
   </energy>
  </scstep>
  <scstep>
   <time name="diag">    0.46    0.46</time>
   <time name="diis">    2.42    2.42</time>
   <time name="orth">    0.01    0.01</time>
   <time name="total">    5.00    5.00</time>
   <energy>
    <i name="e_fr_energy">   -103.20623494 </i>
    <i name="e_wo_entrp">   -103.20623494 </i>
    <i name="e_0_energy">   -103.20623494 </i>
   </energy>
  </scstep>
  <scstep>
   <time name="diag">    0.49    0.49</time>
   <time name="diis">    2.45    2.45</time>
   <time name="orth">    0.02    0.02</time>
   <time name="total">    4.89    4.89</time>
   <energy>
    <i name="e_fr_energy">   -103.20005957 </i>
    <i name="e_wo_entrp">   -103.20005957 </i>
    <i name="e_0_energy">   -103.20005957 </i>
   </energy>
  </scstep>
  <scstep>
   <time name="diag">    0.43    0.43</time>
   <time name="diis">    2.13    2.13</time>
   <time name="orth">    0.02    0.02</time>
   <time name="total">    4.64    4.65</time>
   <energy>
    <i name="e_fr_energy">   -103.20706931 </i>
    <i name="e_wo_entrp">   -103.20706931 </i>
    <i name="e_0_energy">   -103.20706931 </i>
   </energy>
  </scstep>
  <scstep>
   <time name="diag">    0.43    0.43</time>
   <time name="diis">    2.37    2.37</time>
   <time name="orth">    0.01    0.01</time>
   <time name="total">    4.88    4.88</time>
   <energy>
    <i name="e_fr_energy">   -103.20981904 </i>
    <i name="e_wo_entrp">   -103.20981904 </i>
    <i name="e_0_energy">   -103.20981904 </i>
   </energy>
  </scstep>
  <scstep>
   <time name="diag">    0.62    0.62</time>
   <time name="diis">    3.26    3.26</time>
   <time name="orth">    0.03    0.04</time>
   <time name="total">    6.68    6.70</time>
   <energy>
    <i name="e_fr_energy">   -103.22115690 </i>
    <i name="e_wo_entrp">   -103.22115690 </i>
    <i name="e_0_energy">   -103.22115690 </i>
   </energy>
  </scstep>
  <scstep>
   <time name="diag">    0.63    0.63</time>
   <time name="diis">    3.51    3.51</time>
   <time name="orth">    0.03    0.03</time>
   <time name="total">    6.72    6.73</time>
   <energy>
    <i name="e_fr_energy">   -103.22438006 </i>
    <i name="e_wo_entrp">   -103.22438006 </i>
    <i name="e_0_energy">   -103.22438006 </i>
   </energy>
  </scstep>
  <scstep>
   <time name="diag">    0.62    0.62</time>
   <time name="diis">    3.15    3.15</time>
   <time name="orth">    0.01    0.02</time>
   <time name="total">    6.34    6.35</time>
   <energy>
    <i name="e_fr_energy">   -103.22810052 </i>
    <i name="e_wo_entrp">   -103.22810052 </i>
    <i name="e_0_energy">   -103.22810052 </i>
   </energy>
  </scstep>
  <scstep>
   <time name="diag">    0.44    0.44</time>
   <time name="diis">    2.22    2.22</time>
   <time name="orth">    0.01    0.01</time>
   <time name="total">    4.73    4.73</time>
   <energy>
    <i name="e_fr_energy">   -103.22855560 </i>
    <i name="e_wo_entrp">   -103.22855560 </i>
    <i name="e_0_energy">   -103.22855560 </i>
   </energy>
  </scstep>
  <scstep>
   <time name="diag">    0.35    0.36</time>
   <time name="diis">    2.20    2.20</time>
   <time name="orth">    0.01    0.01</time>
   <time name="total">    4.47    4.48</time>
   <energy>
    <i name="e_fr_energy">   -103.22928353 </i>
    <i name="e_wo_entrp">   -103.22928353 </i>
    <i name="e_0_energy">   -103.22928353 </i>
   </energy>
  </scstep>
  <scstep>
   <time name="diag">    0.49    0.49</time>
   <time name="diis">    2.12    2.17</time>
   <time name="orth">    0.03    0.03</time>
   <time name="total">    4.81    4.88</time>
   <energy>
    <i name="e_fr_energy">   -103.22942885 </i>
    <i name="e_wo_entrp">   -103.22942885 </i>
    <i name="e_0_energy">   -103.22942885 </i>
   </energy>
  </scstep>
  <scstep>
   <time name="diag">    0.43    0.45</time>
   <time name="diis">    1.41    1.45</time>
   <time name="orth">    0.01    0.01</time>
   <time name="total">    3.64    3.77</time>
   <energy>
    <i name="e_fr_energy">   -103.22955151 </i>
    <i name="e_wo_entrp">   -103.22955151 </i>
    <i name="e_0_energy">   -103.22955151 </i>
   </energy>
  </scstep>
  <scstep>
   <time name="diag">    0.21    0.21</time>
   <time name="diis">    0.83    0.83</time>
   <time name="orth">    0.01    0.01</time>
   <time name="total">    2.33    2.33</time>
   <energy>
    <i name="e_fr_energy">   -103.22958835 </i>
    <i name="e_wo_entrp">   -103.22958835 </i>
    <i name="e_0_energy">   -103.22958835 </i>
   </energy>
  </scstep>
  <scstep>
   <time name="diag">    0.21    0.21</time>
   <time name="diis">    0.72    0.72</time>
   <time name="orth">    0.01    0.01</time>
   <time name="total">    2.25    2.25</time>
   <energy>
    <i name="e_fr_energy">   -103.22961174 </i>
    <i name="e_wo_entrp">   -103.22961174 </i>
    <i name="e_0_energy">   -103.22961174 </i>
   </energy>
  </scstep>
  <scstep>
   <time name="diag">    0.19    0.19</time>
   <time name="diis">    0.70    0.70</time>
   <time name="orth">    0.01    0.01</time>
   <time name="total">    1.86    1.86</time>
   <energy>
    <i name="alphaZ">      2.15216506 </i>
    <i name="ewald">   2589.41346626 </i>
    <i name="hartreedc">  -3722.35141095 </i>
    <i name="XCdc">    140.60873086 </i>
    <i name="pawpsdc">   3450.81988644 </i>
    <i name="pawaedc">  -3457.13083783 </i>
    <i name="eentropy">     -0.00000000 </i>
    <i name="bandstr">   -513.41488368 </i>
    <i name="atom">   1406.67326350 </i>
    <i name="e_fr_energy">   -103.22962033 </i>
    <i name="e_wo_entrp">   -103.22962033 </i>
    <i name="e_0_energy">   -103.22962033 </i>
   </energy>
  </scstep>
  <structure>
   <crystal>
    <varray name="basis" >
     <v>      15.40225029       0.00000000       0.00000000 </v>
     <v>       0.00000000      15.40225029       0.00000000 </v>
     <v>       0.00000000       0.00000000      15.40225029 </v>
    </varray>
    <i name="volume">   3653.86527022 </i>
    <varray name="rec_basis" >
     <v>       0.06492558       0.00000000       0.00000000 </v>
     <v>       0.00000000       0.06492558       0.00000000 </v>
     <v>       0.00000000       0.00000000       0.06492558 </v>
    </varray>
   </crystal>
   <varray name="positions" >
    <v>       0.33971429       0.43936223       0.56946103 </v>
    <v>       0.33441179       0.52615209       0.56847782 </v>
    <v>       0.41336030       0.57553170       0.54309087 </v>
    <v>       0.42358908       0.40068747       0.54153166 </v>
    <v>       0.44729083       0.43837408       0.44922747 </v>
    <v>       0.44532864       0.53975540       0.45165966 </v>
    <v>       0.52897831       0.57769973       0.43026613 </v>
    <v>       0.28246075       0.39914736       0.57906053 </v>
    <v>       0.47665303       0.42197794       0.58355135 </v>
    <v>       0.42235475       0.32964617       0.54192313 </v>
    <v>       0.27277231       0.55989736       0.57699495 </v>
    <v>       0.46789881       0.56166892       0.58634483 </v>
    <v>       0.40298902       0.64587936       0.54275591 </v>
    <v>       0.39909657       0.41358837       0.40328772 </v>
    <v>       0.51118024       0.41453527       0.42888371 </v>
    <v>       0.39840296       0.56301927       0.40403265 </v>
    <v>       0.59544798       0.61146025       0.41705441 </v>
   </varray>
  </structure>
  <varray name="forces" >
   <v>      -0.16189065       0.11005030      -0.18877259 </v>
   <v>      -0.28383316       0.06348989       0.01351929 </v>
   <v>       0.19234518      -0.23658551      -0.49643049 </v>
   <v>       0.24417950       0.10172131      -0.67920545 </v>
   <v>      -0.23785419      -0.23773697       0.72832885 </v>
   <v>      -0.18069102       0.00009884       0.27105725 </v>
   <v>      -0.13071938       0.09597310       0.08807046 </v>
   <v>      -0.06451218      -0.13717733       0.17420982 </v>
   <v>       0.21921452      -0.09743743       0.43308411 </v>
   <v>       0.07459512      -0.09775234      -0.13416902 </v>
   <v>      -0.01885588       0.06270695       0.19485538 </v>
   <v>       0.13009400       0.09268357       0.43795421 </v>
   <v>       0.08954910       0.04633873      -0.20768309 </v>
   <v>      -0.04749329       0.08202981      -0.20117473 </v>
   <v>       0.08471164       0.00539811      -0.00974538 </v>
   <v>      -0.16852157       0.10923407      -0.32963013 </v>
   <v>       0.25968225       0.03696489      -0.09426850 </v>
  </varray>
  <varray name="stress" >
   <v>      -0.17377314       0.01736472       0.28221859 </v>
   <v>       0.01736472      -0.52562258      -0.12760840 </v>
   <v>       0.28221859      -0.12760840      -0.69141104 </v>
  </varray>
  <energy>
   <i name="e_fr_energy">   -103.43164038 </i>
   <i name="e_wo_entrp">   -103.43164038 </i>
   <i name="e_0_energy">   -103.43164038 </i>
  </energy>
  <time name="totalsc">  126.40  126.93</time>
 </calculation>
 <calculation>
  <scstep>
   <time name="dav">    1.63    1.63</time>
   <time name="total">    3.01    3.01</time>
   <energy>
    <i name="alphaZ">      2.15216506 </i>
    <i name="ewald">   2595.19227825 </i>
    <i name="hartreedc">  -3728.45299399 </i>
    <i name="XCdc">    140.62690910 </i>
    <i name="pawpsdc">   3450.79236296 </i>
    <i name="pawaedc">  -3457.10327945 </i>
    <i name="eentropy">     -0.00000000 </i>
    <i name="bandstr">   -513.13991663 </i>
    <i name="atom">   1406.67326350 </i>
    <i name="e_fr_energy">   -103.25921120 </i>
    <i name="e_wo_entrp">   -103.25921120 </i>
    <i name="e_0_energy">   -103.25921120 </i>
   </energy>
  </scstep>
  <scstep>
   <time name="diag">    0.33    0.33</time>
   <time name="diis">    1.90    1.90</time>
   <time name="orth">    0.01    0.01</time>
   <time name="total">    3.87    3.88</time>
   <energy>
    <i name="e_fr_energy">   -103.26222639 </i>
    <i name="e_wo_entrp">   -103.26222639 </i>
    <i name="e_0_energy">   -103.26222639 </i>
   </energy>
  </scstep>
  <scstep>
   <time name="diag">    0.40    0.40</time>
   <time name="diis">    2.22    2.22</time>
   <time name="orth">    0.01    0.01</time>
   <time name="total">    4.34    4.35</time>
   <energy>
    <i name="e_fr_energy">   -103.26205404 </i>
    <i name="e_wo_entrp">   -103.26205404 </i>
    <i name="e_0_energy">   -103.26205404 </i>
   </energy>
  </scstep>
  <scstep>
   <time name="diag">    0.46    0.46</time>
   <time name="diis">    3.45    3.45</time>
   <time name="orth">    0.02    0.02</time>
   <time name="total">    5.94    5.95</time>
   <energy>
    <i name="e_fr_energy">   -103.26237217 </i>
    <i name="e_wo_entrp">   -103.26237217 </i>
    <i name="e_0_energy">   -103.26237217 </i>
   </energy>
  </scstep>
  <scstep>
   <time name="diag">    0.51    0.51</time>
   <time name="diis">    2.96    2.96</time>
   <time name="orth">    0.02    0.02</time>
   <time name="total">    5.75    5.75</time>
   <energy>
    <i name="e_fr_energy">   -103.26241074 </i>
    <i name="e_wo_entrp">   -103.26241074 </i>
    <i name="e_0_energy">   -103.26241074 </i>
   </energy>
  </scstep>
  <scstep>
   <time name="diag">    0.49    0.49</time>
   <time name="diis">    2.08    2.08</time>
   <time name="orth">    0.01    0.01</time>
   <time name="total">    4.47    4.48</time>
   <energy>
    <i name="e_fr_energy">   -103.26242682 </i>
    <i name="e_wo_entrp">   -103.26242682 </i>
    <i name="e_0_energy">   -103.26242682 </i>
   </energy>
  </scstep>
  <scstep>
   <time name="diag">    0.18    0.18</time>
   <time name="diis">    0.66    0.66</time>
   <time name="orth">    0.01    0.01</time>
   <time name="total">    1.69    1.69</time>
   <energy>
    <i name="alphaZ">      2.15216506 </i>
    <i name="ewald">   2595.19227825 </i>
    <i name="hartreedc">  -3728.13888856 </i>
    <i name="XCdc">    140.58808923 </i>
    <i name="pawpsdc">   3449.93207242 </i>
    <i name="pawaedc">  -3456.23552645 </i>
    <i name="eentropy">     -0.00000000 </i>
    <i name="bandstr">   -513.42588660 </i>
    <i name="atom">   1406.67326350 </i>
    <i name="e_fr_energy">   -103.26243316 </i>
    <i name="e_wo_entrp">   -103.26243316 </i>
    <i name="e_0_energy">   -103.26243316 </i>
   </energy>
  </scstep>
  <structure>
   <crystal>
    <varray name="basis" >
     <v>      15.40225029       0.00000000       0.00000000 </v>
     <v>       0.00000000      15.40225029       0.00000000 </v>
     <v>       0.00000000       0.00000000      15.40225029 </v>
    </varray>
    <i name="volume">   3653.86527022 </i>
    <varray name="rec_basis" >
     <v>       0.06492558       0.00000000       0.00000000 </v>
     <v>       0.00000000       0.06492558       0.00000000 </v>
     <v>       0.00000000       0.00000000       0.06492558 </v>
    </varray>
   </crystal>
   <varray name="positions" >
    <v>       0.33956053       0.43947426       0.56919965 </v>
    <v>       0.33420093       0.52608290       0.56831170 </v>
    <v>       0.41371324       0.57515879       0.54210255 </v>
    <v>       0.42390176       0.40091316       0.54050882 </v>
    <v>       0.44700378       0.43812901       0.45040570 </v>
    <v>       0.44498247       0.54003325       0.45272813 </v>
    <v>       0.52881334       0.57774988       0.43052515 </v>
    <v>       0.28247520       0.39898154       0.57939800 </v>
    <v>       0.47670431       0.42175473       0.58406072 </v>
    <v>       0.42243222       0.32970453       0.54157992 </v>
    <v>       0.27280744       0.55997715       0.57734445 </v>
    <v>       0.46786568       0.56177371       0.58690038 </v>
    <v>       0.40318052       0.64570104       0.54217714 </v>
    <v>       0.39921849       0.41388755       0.40303661 </v>
    <v>       0.51117102       0.41477446       0.42899332 </v>
    <v>       0.39841863       0.56297885       0.40376519 </v>
    <v>       0.59556559       0.61130931       0.41673014 </v>
   </varray>
  </structure>
  <varray name="forces" >
   <v>      -0.09827368      -0.07530209      -0.21408029 </v>
   <v>      -0.13516727       0.16097634      -0.06484937 </v>
   <v>       0.04453184       0.01140990       0.20754392 </v>
   <v>       0.11973483      -0.06839318       0.10573539 </v>
   <v>      -0.01847968      -0.09155838      -0.08712582 </v>
   <v>      -0.08220984      -0.11692040      -0.38488118 </v>
   <v>       0.25242694       0.25575731       0.03675970 </v>
   <v>      -0.01362650      -0.11183468       0.16994501 </v>
   <v>       0.03810755      -0.15783260       0.24818227 </v>
   <v>       0.07462430      -0.02608929      -0.16452243 </v>
   <v>      -0.03999116       0.09141785       0.20508741 </v>
   <v>      -0.04650436       0.12307540       0.24940100 </v>
   <v>       0.10078485      -0.03855865      -0.20872312 </v>
   <v>       0.05492916       0.13704993      -0.02204668 </v>
   <v>      -0.05525398       0.06148802       0.06941475 </v>
   <v>      -0.03595974       0.01429138      -0.12874383 </v>
   <v>      -0.15967327      -0.16897688      -0.01709672 </v>
  </varray>
  <varray name="stress" >
   <v>      -0.71575047      -0.08654481      -0.02371061 </v>
   <v>      -0.08654481      -0.58226567      -0.11102158 </v>
   <v>      -0.02371061      -0.11102158      -0.33045469 </v>
  </varray>
  <energy>
   <i name="e_fr_energy">   -103.46419271 </i>
   <i name="e_wo_entrp">   -103.46419271 </i>
   <i name="e_0_energy">   -103.46419271 </i>
  </energy>
  <time name="totalsc">   37.70   37.73</time>
 </calculation>
 <calculation>
  <scstep>
   <time name="dav">    3.12    3.12</time>
   <time name="total">    5.64    5.64</time>
   <energy>
    <i name="alphaZ">      2.15216506 </i>
    <i name="ewald">   2606.51001018 </i>
    <i name="hartreedc">  -3738.31344696 </i>
    <i name="XCdc">    140.68557956 </i>
    <i name="pawpsdc">   3450.09837298 </i>
    <i name="pawaedc">  -3456.40195301 </i>
    <i name="eentropy">     -0.00000000 </i>
    <i name="bandstr">   -514.62535062 </i>
    <i name="atom">   1406.67326350 </i>
    <i name="e_fr_energy">   -103.22135930 </i>
    <i name="e_wo_entrp">   -103.22135930 </i>
    <i name="e_0_energy">   -103.22135930 </i>
   </energy>
  </scstep>
  <scstep>
   <time name="diag">    0.57    0.57</time>
   <time name="diis">    2.68    2.68</time>
   <time name="orth">    0.02    0.02</time>
   <time name="total">    5.72    5.72</time>
   <energy>
    <i name="e_fr_energy">   -103.22612121 </i>
    <i name="e_wo_entrp">   -103.22612121 </i>
    <i name="e_0_energy">   -103.22612121 </i>
   </energy>
  </scstep>
  <scstep>
   <time name="diag">    0.61    0.62</time>
   <time name="diis">    2.73    2.73</time>
   <time name="orth">    0.02    0.02</time>
   <time name="total">    5.96    5.97</time>
   <energy>
    <i name="e_fr_energy">   -103.22586732 </i>
    <i name="e_wo_entrp">   -103.22586732 </i>
    <i name="e_0_energy">   -103.22586732 </i>
   </energy>
  </scstep>
  <scstep>
   <time name="diag">    0.51    0.51</time>
   <time name="diis">    2.72    2.72</time>
   <time name="orth">    0.02    0.02</time>
   <time name="total">    5.37    5.37</time>
   <energy>
    <i name="e_fr_energy">   -103.22643920 </i>
    <i name="e_wo_entrp">   -103.22643920 </i>
    <i name="e_0_energy">   -103.22643920 </i>
   </energy>
  </scstep>
  <scstep>
   <time name="diag">    0.38    0.38</time>
   <time name="diis">    1.47    1.47</time>
   <time name="orth">    0.01    0.01</time>
   <time name="total">    3.46    3.47</time>
   <energy>
    <i name="e_fr_energy">   -103.22646135 </i>
    <i name="e_wo_entrp">   -103.22646135 </i>
    <i name="e_0_energy">   -103.22646135 </i>
   </energy>
  </scstep>
  <scstep>
   <time name="diag">    0.13    0.13</time>
   <time name="diis">    0.68    0.68</time>
   <time name="orth">    0.01    0.01</time>
   <time name="total">    1.72    1.72</time>
   <energy>
    <i name="e_fr_energy">   -103.22651406 </i>
    <i name="e_wo_entrp">   -103.22651406 </i>
    <i name="e_0_energy">   -103.22651406 </i>
   </energy>
  </scstep>
  <scstep>
   <time name="diag">    0.14    0.14</time>
   <time name="diis">    0.59    0.59</time>
   <time name="orth">    0.01    0.01</time>
   <time name="total">    1.51    1.51</time>
   <energy>
    <i name="alphaZ">      2.15216506 </i>
    <i name="ewald">   2606.51001018 </i>
    <i name="hartreedc">  -3739.05730861 </i>
    <i name="XCdc">    140.69578775 </i>
    <i name="pawpsdc">   3475.51711310 </i>
    <i name="pawaedc">  -3481.83181594 </i>
    <i name="eentropy">     -0.00000000 </i>
    <i name="bandstr">   -513.88573230 </i>
    <i name="atom">   1406.67326350 </i>
    <i name="e_fr_energy">   -103.22651725 </i>
    <i name="e_wo_entrp">   -103.22651725 </i>
    <i name="e_0_energy">   -103.22651725 </i>
   </energy>
  </scstep>
  <structure>
   <crystal>
    <varray name="basis" >
     <v>      15.40225029       0.00000000       0.00000000 </v>
     <v>       0.00000000      15.40225029       0.00000000 </v>
     <v>       0.00000000       0.00000000      15.40225029 </v>
    </varray>
    <i name="volume">   3653.86527022 </i>
    <varray name="rec_basis" >
     <v>       0.06492558       0.00000000       0.00000000 </v>
     <v>       0.00000000       0.06492558       0.00000000 </v>
     <v>       0.00000000       0.00000000       0.06492558 </v>
    </varray>
   </crystal>
   <varray name="positions" >
    <v>       0.33936132       0.43949338       0.56870866 </v>
    <v>       0.33399289       0.52601805       0.56790386 </v>
    <v>       0.41421950       0.57472045       0.54094662 </v>
    <v>       0.42433344       0.40116748       0.53941674 </v>
    <v>       0.44670882       0.43784525       0.45176369 </v>
    <v>       0.44444536       0.54046975       0.45413917 </v>
    <v>       0.52888498       0.57797564       0.43095963 </v>
    <v>       0.28256967       0.39871943       0.58001551 </v>
    <v>       0.47656921       0.42128412       0.58477008 </v>
    <v>       0.42256482       0.32991599       0.54090796 </v>
    <v>       0.27286945       0.56014385       0.57799173 </v>
    <v>       0.46759742       0.56198416       0.58769651 </v>
    <v>       0.40354507       0.64525610       0.54109590 </v>
    <v>       0.39956944       0.41450618       0.40277387 </v>
    <v>       0.51099753       0.41530181       0.42927981 </v>
    <v>       0.39861891       0.56277660       0.40352060 </v>
    <v>       0.59532973       0.61080810       0.41618809 </v>
   </varray>
  </structure>
  <varray name="forces" >
   <v>      -0.02143102      -0.16209122      -0.20692666 </v>
   <v>      -0.03479214       0.20558436      -0.10406867 </v>
   <v>      -0.28734763       0.31165443       1.17697294 </v>
   <v>      -0.16047500      -0.33981301       1.05240526 </v>
   <v>       0.25101410       0.29334157      -1.06678648 </v>
   <v>       0.37549554      -0.38741390      -1.36067066 </v>
   <v>      -0.53158290      -0.16624042       0.21903763 </v>
   <v>       0.03289231      -0.08870532       0.15131117 </v>
   <v>      -0.08656222      -0.18229073       0.07263412 </v>
   <v>       0.07209366      -0.02110673      -0.18147165 </v>
   <v>      -0.01605789       0.09758021       0.19393659 </v>
   <v>      -0.18149753       0.13749800       0.04461679 </v>
   <v>       0.08717887      -0.02067766      -0.17713918 </v>
   <v>       0.09930031       0.14625586       0.14572339 </v>
   <v>      -0.09013316       0.07619778       0.12215161 </v>
   <v>       0.04390270      -0.04023020       0.06532687 </v>
   <v>       0.44800199       0.14045699      -0.14705305 </v>
  </varray>
  <varray name="stress" >
   <v>      -0.73673966      -0.02357193      -0.50159257 </v>
   <v>      -0.02357193      -0.44545467      -0.10057606 </v>
   <v>      -0.50159257      -0.10057606       0.31895871 </v>
  </varray>
  <energy>
   <i name="e_fr_energy">   -103.42806624 </i>
   <i name="e_wo_entrp">   -103.42806624 </i>
   <i name="e_0_energy">   -103.42806624 </i>
  </energy>
  <time name="totalsc">   37.45   37.50</time>
 </calculation>
 <calculation>
  <scstep>
   <time name="dav">    2.68    2.69</time>
   <time name="total">    4.60    4.62</time>
   <energy>
    <i name="alphaZ">      2.15216506 </i>
    <i name="ewald">   2612.45837554 </i>
    <i name="hartreedc">  -3744.77754844 </i>
    <i name="XCdc">    140.74348567 </i>
    <i name="pawpsdc">   3476.29555545 </i>
    <i name="pawaedc">  -3482.61080518 </i>
    <i name="eentropy">     -0.00000000 </i>
    <i name="bandstr">   -514.11289817 </i>
    <i name="atom">   1406.67326350 </i>
    <i name="e_fr_energy">   -103.17840657 </i>
    <i name="e_wo_entrp">   -103.17840657 </i>
    <i name="e_0_energy">   -103.17840657 </i>
   </energy>
  </scstep>
  <scstep>
   <time name="diag">    0.35    0.35</time>
   <time name="diis">    2.53    2.53</time>
   <time name="orth">    0.01    0.01</time>
   <time name="total">    4.38    4.38</time>
   <energy>
    <i name="e_fr_energy">   -103.17986847 </i>
    <i name="e_wo_entrp">   -103.17986847 </i>
    <i name="e_0_energy">   -103.17986847 </i>
   </energy>
  </scstep>
  <scstep>
   <time name="diag">    0.32    0.32</time>
   <time name="diis">    2.00    2.00</time>
   <time name="orth">    0.01    0.01</time>
   <time name="total">    3.84    3.84</time>
   <energy>
    <i name="e_fr_energy">   -103.17973978 </i>
    <i name="e_wo_entrp">   -103.17973978 </i>
    <i name="e_0_energy">   -103.17973978 </i>
   </energy>
  </scstep>
  <scstep>
   <time name="diag">    0.21    0.21</time>
   <time name="diis">    1.66    1.66</time>
   <time name="orth">    0.01    0.01</time>
   <time name="total">    3.34    3.35</time>
   <energy>
    <i name="e_fr_energy">   -103.17993835 </i>
    <i name="e_wo_entrp">   -103.17993835 </i>
    <i name="e_0_energy">   -103.17993835 </i>
   </energy>
  </scstep>
  <scstep>
   <time name="diag">    0.18    0.18</time>
   <time name="diis">    1.28    1.29</time>
   <time name="orth">    0.01    0.01</time>
   <time name="total">    2.71    2.72</time>
   <energy>
    <i name="e_fr_energy">   -103.17996043 </i>
    <i name="e_wo_entrp">   -103.17996043 </i>
    <i name="e_0_energy">   -103.17996043 </i>
   </energy>
  </scstep>
  <scstep>
   <time name="diag">    0.24    0.24</time>
   <time name="diis">    1.17    1.17</time>
   <time name="orth">    0.01    0.01</time>
   <time name="total">    2.59    2.59</time>
   <energy>
    <i name="e_fr_energy">   -103.17998536 </i>
    <i name="e_wo_entrp">   -103.17998536 </i>
    <i name="e_0_energy">   -103.17998536 </i>
   </energy>
  </scstep>
  <scstep>
   <time name="diag">    0.14    0.14</time>
   <time name="diis">    0.62    0.62</time>
   <time name="orth">    0.01    0.01</time>
   <time name="total">    1.80    1.80</time>
   <energy>
    <i name="e_fr_energy">   -103.17999602 </i>
    <i name="e_wo_entrp">   -103.17999602 </i>
    <i name="e_0_energy">   -103.17999602 </i>
   </energy>
  </scstep>
  <scstep>
   <time name="diag">    0.14    0.14</time>
   <time name="diis">    0.60    0.60</time>
   <time name="orth">    0.00    0.00</time>
   <time name="total">    1.55    1.55</time>
   <energy>
    <i name="e_fr_energy">   -103.18001663 </i>
    <i name="e_wo_entrp">   -103.18001663 </i>
    <i name="e_0_energy">   -103.18001663 </i>
   </energy>
  </scstep>
  <scstep>
   <time name="diag">    0.12    0.12</time>
   <time name="diis">    0.50    0.51</time>
   <time name="orth">    0.00    0.00</time>
   <time name="total">    1.32    1.32</time>
   <energy>
    <i name="alphaZ">      2.15216506 </i>
    <i name="ewald">   2612.45837554 </i>
    <i name="hartreedc">  -3744.77600369 </i>
    <i name="XCdc">    140.72561310 </i>
    <i name="pawpsdc">   3481.50485322 </i>
    <i name="pawaedc">  -3487.81651872 </i>
    <i name="eentropy">     -0.00000000 </i>
    <i name="bandstr">   -514.10176746 </i>
    <i name="atom">   1406.67326350 </i>
    <i name="e_fr_energy">   -103.18001945 </i>
    <i name="e_wo_entrp">   -103.18001945 </i>
    <i name="e_0_energy">   -103.18001945 </i>
   </energy>
  </scstep>
  <structure>
   <crystal>
    <varray name="basis" >
     <v>      15.40225029       0.00000000       0.00000000 </v>
     <v>       0.00000000      15.40225029       0.00000000 </v>
     <v>       0.00000000       0.00000000      15.40225029 </v>
    </varray>
    <i name="volume">   3653.86527022 </i>
    <varray name="rec_basis" >
     <v>       0.06492558       0.00000000       0.00000000 </v>
     <v>       0.00000000       0.06492558       0.00000000 </v>
     <v>       0.00000000       0.00000000       0.06492558 </v>
    </varray>
   </crystal>
   <varray name="positions" >
    <v>       0.33924490       0.43947820       0.56833236 </v>
    <v>       0.33388608       0.52596341       0.56755243 </v>
    <v>       0.41447500       0.57449425       0.54041348 </v>
    <v>       0.42454090       0.40125780       0.53894679 </v>
    <v>       0.44659493       0.43780435       0.45243738 </v>
    <v>       0.44422832       0.54071816       0.45489990 </v>
    <v>       0.52854479       0.57793173       0.43139588 </v>
    <v>       0.28267264       0.39853215       0.58049815 </v>
    <v>       0.47638693       0.42090466       0.58523610 </v>
    <v>       0.42266281       0.33009927       0.54036246 </v>
    <v>       0.27294180       0.56027244       0.57849561 </v>
    <v>       0.46731591       0.56214809       0.58822097 </v>
    <v>       0.40382743       0.64489973       0.54024661 </v>
    <v>       0.39987526       0.41500403       0.40264756 </v>
    <v>       0.51084443       0.41574166       0.42952712 </v>
    <v>       0.39882769       0.56257738       0.40343312 </v>
    <v>       0.59543690       0.61056076       0.41567977 </v>
   </varray>
  </structure>
  <varray name="forces" >
   <v>      -0.00256873      -0.21089648      -0.16783335 </v>
   <v>      -0.02600695       0.24422858      -0.08583468 </v>
   <v>      -0.51545386       0.45908489       1.72461477 </v>
   <v>      -0.32989623      -0.45090049       1.50572797 </v>
   <v>       0.38576732       0.50312537      -1.54365512 </v>
   <v>       0.51709170      -0.64051281      -1.88432129 </v>
   <v>       0.33956508       0.22590820      -0.00733017 </v>
   <v>       0.06061679      -0.06660765       0.13032569 </v>
   <v>      -0.12206591      -0.17956589      -0.00405323 </v>
   <v>       0.06288344      -0.07733519      -0.17869596 </v>
   <v>       0.01613950       0.08316966       0.17364996 </v>
   <v>      -0.22188354       0.13672791      -0.05449102 </v>
   <v>       0.05872156       0.05713145      -0.13614140 </v>
   <v>       0.09120655       0.13147961       0.20987781 </v>
   <v>      -0.04679347       0.06077080       0.12602057 </v>
   <v>       0.05314832      -0.04736373       0.15344932 </v>
   <v>      -0.32047157      -0.22844424       0.03869014 </v>
  </varray>
  <varray name="stress" >
   <v>      -1.02639262      -0.20041347      -0.69490166 </v>
   <v>      -0.20041347      -0.36995366      -0.02543451 </v>
   <v>      -0.69490166      -0.02543451       0.69917554 </v>
  </varray>
  <energy>
   <i name="e_fr_energy">   -103.38137429 </i>
   <i name="e_wo_entrp">   -103.38137429 </i>
   <i name="e_0_energy">   -103.38137429 </i>
  </energy>
  <time name="totalsc">   36.64   36.69</time>
 </calculation>
 <calculation>
  <scstep>
   <time name="dav">    2.78    2.78</time>
   <time name="total">    5.34    5.34</time>
   <energy>
    <i name="alphaZ">      2.15216506 </i>
    <i name="ewald">   2619.37244003 </i>
    <i name="hartreedc">  -3750.57267793 </i>
    <i name="XCdc">    140.80582537 </i>
    <i name="pawpsdc">   3481.55687528 </i>
    <i name="pawaedc">  -3487.86850362 </i>
    <i name="eentropy">     -0.00000000 </i>
    <i name="bandstr">   -515.27506915 </i>
    <i name="atom">   1406.67326350 </i>
    <i name="e_fr_energy">   -103.15568145 </i>
    <i name="e_wo_entrp">   -103.15568145 </i>
    <i name="e_0_energy">   -103.15568145 </i>
   </energy>
  </scstep>
  <scstep>
   <time name="diag">    0.54    0.54</time>
   <time name="diis">    2.97    2.97</time>
   <time name="orth">    0.02    0.02</time>
   <time name="total">    6.03    6.03</time>
   <energy>
    <i name="e_fr_energy">   -103.15640794 </i>
    <i name="e_wo_entrp">   -103.15640794 </i>
    <i name="e_0_energy">   -103.15640794 </i>
   </energy>
  </scstep>
  <scstep>
   <time name="diag">    0.57    0.57</time>
   <time name="diis">    2.53    2.53</time>
   <time name="orth">    0.01    0.01</time>
   <time name="total">    5.36    5.36</time>
   <energy>
    <i name="e_fr_energy">   -103.15653345 </i>
    <i name="e_wo_entrp">   -103.15653345 </i>
    <i name="e_0_energy">   -103.15653345 </i>
   </energy>
  </scstep>
  <scstep>
   <time name="diag">    0.25    0.25</time>
   <time name="diis">    1.36    1.36</time>
   <time name="orth">    0.01    0.01</time>
   <time name="total">    2.98    2.98</time>
   <energy>
    <i name="e_fr_energy">   -103.15663966 </i>
    <i name="e_wo_entrp">   -103.15663966 </i>
    <i name="e_0_energy">   -103.15663966 </i>
   </energy>
  </scstep>
  <scstep>
   <time name="diag">    0.20    0.20</time>
   <time name="diis">    1.01    1.01</time>
   <time name="orth">    0.01    0.01</time>
   <time name="total">    2.28    2.28</time>
   <energy>
    <i name="e_fr_energy">   -103.15664315 </i>
    <i name="e_wo_entrp">   -103.15664315 </i>
    <i name="e_0_energy">   -103.15664315 </i>
   </energy>
  </scstep>
  <scstep>
   <time name="diag">    0.11    0.11</time>
   <time name="diis">    0.57    0.57</time>
   <time name="orth">    0.01    0.01</time>
   <time name="total">    1.48    1.48</time>
   <energy>
    <i name="e_fr_energy">   -103.15666094 </i>
    <i name="e_wo_entrp">   -103.15666094 </i>
    <i name="e_0_energy">   -103.15666094 </i>
   </energy>
  </scstep>
  <scstep>
   <time name="diag">    0.11    0.11</time>
   <time name="diis">    0.49    0.49</time>
   <time name="orth">    0.01    0.01</time>
   <time name="total">    1.34    1.34</time>
   <energy>
    <i name="alphaZ">      2.15216506 </i>
    <i name="ewald">   2619.37244003 </i>
    <i name="hartreedc">  -3751.37694182 </i>
    <i name="XCdc">    140.83455263 </i>
    <i name="pawpsdc">   3500.88686255 </i>
    <i name="pawaedc">  -3507.20916609 </i>
    <i name="eentropy">     -0.00000000 </i>
    <i name="bandstr">   -514.48983782 </i>
    <i name="atom">   1406.67326350 </i>
    <i name="e_fr_energy">   -103.15666195 </i>
    <i name="e_wo_entrp">   -103.15666195 </i>
    <i name="e_0_energy">   -103.15666195 </i>
   </energy>
  </scstep>
  <structure>
   <crystal>
    <varray name="basis" >
     <v>      15.40225029       0.00000000       0.00000000 </v>
     <v>       0.00000000      15.40225029       0.00000000 </v>
     <v>       0.00000000       0.00000000      15.40225029 </v>
    </varray>
    <i name="volume">   3653.86527022 </i>
    <varray name="rec_basis" >
     <v>       0.06492558       0.00000000       0.00000000 </v>
     <v>       0.00000000       0.06492558       0.00000000 </v>
     <v>       0.00000000       0.00000000       0.06492558 </v>
    </varray>
   </crystal>
   <varray name="positions" >
    <v>       0.33913902       0.43942418       0.56792250 </v>
    <v>       0.33379589       0.52590542       0.56712879 </v>
    <v>       0.41458370       0.57435409       0.54022898 </v>
    <v>       0.42462303       0.40126050       0.53880182 </v>
    <v>       0.44658863       0.43796304       0.45281195 </v>
    <v>       0.44413954       0.54083399       0.45539585 </v>
    <v>       0.52850624       0.57801872       0.43181229 </v>
    <v>       0.28282668       0.39834008       0.58105552 </v>
    <v>       0.47610624       0.42045923       0.58568925 </v>
    <v>       0.42276583       0.33029636       0.53970919 </v>
    <v>       0.27306567       0.56041003       0.57907262 </v>
    <v>       0.46692563       0.56233341       0.58872726 </v>
    <v>       0.40414091       0.64451627       0.53926713 </v>
    <v>       0.40024797       0.41558865       0.40257718 </v>
    <v>       0.51068502       0.41627247       0.42982518 </v>
    <v>       0.39910868       0.56231148       0.40344043 </v>
    <v>       0.59520914       0.61010220       0.41514905 </v>
   </varray>
  </structure>
  <varray name="forces" >
   <v>      -0.01110551      -0.23033323      -0.09964669 </v>
   <v>      -0.06398598       0.27232356      -0.02036985 </v>
   <v>      -0.64981546       0.48210334       1.93903216 </v>
   <v>      -0.42764933      -0.44158128       1.61203071 </v>
   <v>       0.43984379       0.61259686      -1.67972185 </v>
   <v>       0.69576538      -0.76348639      -2.14260621 </v>
   <v>       0.05821420       0.05643761       0.01363382 </v>
   <v>       0.07256631      -0.04510944       0.10272793 </v>
   <v>      -0.11020487      -0.15864406      -0.03000065 </v>
   <v>       0.04469906      -0.18132598      -0.15902415 </v>
   <v>       0.04355289       0.05787734       0.14312717 </v>
   <v>      -0.21279120       0.12758979      -0.09672396 </v>
   <v>       0.00914436       0.19234961      -0.07173656 </v>
   <v>       0.04746645       0.09241540       0.21855417 </v>
   <v>       0.05925103       0.01751587       0.09789296 </v>
   <v>       0.02974343      -0.01789569       0.18212083 </v>
   <v>      -0.02469455      -0.07283331      -0.00928982 </v>
  </varray>
  <varray name="stress" >
   <v>      -0.76701475      -0.17846208      -0.87661068 </v>
   <v>      -0.17846208      -0.13150761       0.01853646 </v>
   <v>      -0.87661068       0.01853646       0.92198308 </v>
  </varray>
  <energy>
   <i name="e_fr_energy">   -103.35791125 </i>
   <i name="e_wo_entrp">   -103.35791125 </i>
   <i name="e_0_energy">   -103.35791125 </i>
  </energy>
  <time name="totalsc">   33.15   35.10</time>
 </calculation>
 <calculation>
  <scstep>
   <time name="dav">    1.77    1.92</time>
   <time name="total">    3.63    4.56</time>
   <energy>
    <i name="alphaZ">      2.15216506 </i>
    <i name="ewald">   2633.49741421 </i>
    <i name="hartreedc">  -3763.29844797 </i>
    <i name="XCdc">    141.00246298 </i>
    <i name="pawpsdc">   3501.56963897 </i>
    <i name="pawaedc">  -3507.89216987 </i>
    <i name="eentropy">     -0.00000000 </i>
    <i name="bandstr">   -516.85772957 </i>
    <i name="atom">   1406.67326350 </i>
    <i name="e_fr_energy">   -103.15340268 </i>
    <i name="e_wo_entrp">   -103.15340268 </i>
    <i name="e_0_energy">   -103.15340268 </i>
   </energy>
  </scstep>
  <scstep>
   <time name="diag">    0.35    0.36</time>
   <time name="diis">    2.45    2.51</time>
   <time name="orth">    0.02    0.02</time>
   <time name="total">    4.26    4.68</time>
   <energy>
    <i name="e_fr_energy">   -103.15969792 </i>
    <i name="e_wo_entrp">   -103.15969792 </i>
    <i name="e_0_energy">   -103.15969792 </i>
   </energy>
  </scstep>
  <scstep>
   <time name="diag">    0.39    0.41</time>
   <time name="diis">    2.51    2.54</time>
   <time name="orth">    0.02    0.02</time>
   <time name="total">    5.38    5.52</time>
   <energy>
    <i name="e_fr_energy">   -103.16042426 </i>
    <i name="e_wo_entrp">   -103.16042426 </i>
    <i name="e_0_energy">   -103.16042426 </i>
   </energy>
  </scstep>
  <scstep>
   <time name="diag">    0.35    0.69</time>
   <time name="diis">    1.69    2.67</time>
   <time name="orth">    0.02    0.03</time>
   <time name="total">    4.00    7.00</time>
   <energy>
    <i name="e_fr_energy">   -103.16119787 </i>
    <i name="e_wo_entrp">   -103.16119787 </i>
    <i name="e_0_energy">   -103.16119787 </i>
   </energy>
  </scstep>
  <scstep>
   <time name="diag">    0.22    0.22</time>
   <time name="diis">    1.60    2.20</time>
   <time name="orth">    0.01    0.02</time>
   <time name="total">    2.99    3.85</time>
   <energy>
    <i name="e_fr_energy">   -103.16124769 </i>
    <i name="e_wo_entrp">   -103.16124769 </i>
    <i name="e_0_energy">   -103.16124769 </i>
   </energy>
  </scstep>
  <scstep>
   <time name="diag">    0.12    0.26</time>
   <time name="diis">    0.96    1.04</time>
   <time name="orth">    0.01    0.01</time>
   <time name="total">    2.09    3.01</time>
   <energy>
    <i name="e_fr_energy">   -103.16132389 </i>
    <i name="e_wo_entrp">   -103.16132389 </i>
    <i name="e_0_energy">   -103.16132389 </i>
   </energy>
  </scstep>
  <scstep>
   <time name="diag">    0.12    0.12</time>
   <time name="diis">    0.57    0.58</time>
   <time name="orth">    0.00    0.00</time>
   <time name="total">    1.63    1.64</time>
   <energy>
    <i name="e_fr_energy">   -103.16136557 </i>
    <i name="e_wo_entrp">   -103.16136557 </i>
    <i name="e_0_energy">   -103.16136557 </i>
   </energy>
  </scstep>
  <scstep>
   <time name="diag">    0.07    0.11</time>
   <time name="diis">    0.40    0.56</time>
   <time name="orth">    0.00    0.01</time>
   <time name="total">    1.17    1.77</time>
   <energy>
    <i name="e_fr_energy">   -103.16143645 </i>
    <i name="e_wo_entrp">   -103.16143645 </i>
    <i name="e_0_energy">   -103.16143645 </i>
   </energy>
  </scstep>
  <scstep>
   <time name="diag">    0.07    0.13</time>
   <time name="diis">    0.44    0.50</time>
   <time name="orth">    0.00    0.00</time>
   <time name="total">    1.15    1.61</time>
   <energy>
    <i name="e_fr_energy">   -103.16145377 </i>
    <i name="e_wo_entrp">   -103.16145377 </i>
    <i name="e_0_energy">   -103.16145377 </i>
   </energy>
  </scstep>
  <scstep>
   <time name="diag">    0.07    0.08</time>
   <time name="diis">    0.29    0.59</time>
   <time name="orth">    0.00    0.00</time>
   <time name="total">    0.94    1.53</time>
   <energy>
    <i name="e_fr_energy">   -103.16153748 </i>
    <i name="e_wo_entrp">   -103.16153748 </i>
    <i name="e_0_energy">   -103.16153748 </i>
   </energy>
  </scstep>
  <scstep>
   <time name="diag">    0.07    0.09</time>
   <time name="diis">    0.30    0.46</time>
   <time name="orth">    0.00    0.00</time>
   <time name="total">    0.77    1.13</time>
   <energy>
    <i name="alphaZ">      2.15216506 </i>
    <i name="ewald">   2633.49741421 </i>
    <i name="hartreedc">  -3764.93894023 </i>
    <i name="XCdc">    141.06394391 </i>
    <i name="pawpsdc">   3537.75792712 </i>
    <i name="pawaedc">  -3544.09789372 </i>
    <i name="eentropy">     -0.00000000 </i>
    <i name="bandstr">   -515.26941943 </i>
    <i name="atom">   1406.67326350 </i>
    <i name="e_fr_energy">   -103.16153957 </i>
    <i name="e_wo_entrp">   -103.16153957 </i>
    <i name="e_0_energy">   -103.16153957 </i>
   </energy>
  </scstep>
  <structure>
   <crystal>
    <varray name="basis" >
     <v>      15.40225029       0.00000000       0.00000000 </v>
     <v>       0.00000000      15.40225029       0.00000000 </v>
     <v>       0.00000000       0.00000000      15.40225029 </v>
    </varray>
    <i name="volume">   3653.86527022 </i>
    <varray name="rec_basis" >
     <v>       0.06492558       0.00000000       0.00000000 </v>
     <v>       0.00000000       0.06492558       0.00000000 </v>
     <v>       0.00000000       0.00000000       0.06492558 </v>
    </varray>
   </crystal>
   <varray name="positions" >
    <v>       0.33880738       0.43916429       0.56681232 </v>
    <v>       0.33345025       0.52579119       0.56591052 </v>
    <v>       0.41439750       0.57408734       0.54061181 </v>
    <v>       0.42446117       0.40118171       0.53902857 </v>
    <v>       0.44684030       0.43896339       0.45324256 </v>
    <v>       0.44446062       0.54070767       0.45594764 </v>
    <v>       0.52820013       0.57808683       0.43305725 </v>
    <v>       0.28338244       0.39781850       0.58277139 </v>
    <v>       0.47515162       0.41909370       0.58695724 </v>
    <v>       0.42303346       0.33065073       0.53764026 </v>
    <v>       0.27358334       0.56077246       0.58082798 </v>
    <v>       0.46563100       0.56288927       0.59010808 </v>
    <v>       0.40500200       0.64365528       0.53631496 </v>
    <v>       0.40134991       0.41736316       0.40248540 </v>
    <v>       0.51046708       0.41789506       0.43070005 </v>
    <v>       0.39998709       0.56148720       0.40367671 </v>
    <v>       0.59471960       0.60878869       0.41341640 </v>
   </varray>
  </structure>
  <varray name="forces" >
   <v>      -0.09511531      -0.13536501       0.13348277 </v>
   <v>      -0.19394822       0.20449807       0.24215088 </v>
   <v>      -0.69488011       0.37704614       1.56968137 </v>
   <v>      -0.45152423      -0.28572160       1.20266482 </v>
   <v>       0.43258612       0.48591105      -1.38820796 </v>
   <v>       0.67728267      -0.75693285      -1.86022928 </v>
   <v>       0.32078667       0.07168344      -0.23678649 </v>
   <v>       0.05151164      -0.00235668       0.02084967 </v>
   <v>      -0.02952314      -0.08177203      -0.02285532 </v>
   <v>      -0.01965497      -0.40292147      -0.08905628 </v>
   <v>       0.03556867      -0.00055342       0.05518488 </v>
   <v>      -0.10477318       0.08982442      -0.08609044 </v>
   <v>      -0.14441755       0.51860156       0.13847619 </v>
   <v>      -0.10126021      -0.04367352       0.14318585 </v>
   <v>       0.39691385      -0.14366673      -0.01462289 </v>
   <v>      -0.08895100       0.11730723       0.12664645 </v>
   <v>       0.00939830      -0.01190861       0.06552577 </v>
  </varray>
  <varray name="stress" >
   <v>      -0.06515153      -0.22066526      -1.06359911 </v>
   <v>      -0.22066526       0.45255034       0.15195665 </v>
   <v>      -1.06359911       0.15195665       0.94990568 </v>
  </varray>
  <energy>
   <i name="e_fr_energy">   -103.36239017 </i>
   <i name="e_wo_entrp">   -103.36239017 </i>
   <i name="e_0_energy">   -103.36239017 </i>
  </energy>
  <time name="totalsc">   36.60   47.13</time>
 </calculation>
 <calculation>
  <scstep>
   <time name="dav">    1.42    1.46</time>
   <time name="total">    2.88    3.05</time>
   <energy>
    <i name="alphaZ">      2.15216506 </i>
    <i name="ewald">   2650.84831936 </i>
    <i name="hartreedc">  -3780.04963125 </i>
    <i name="XCdc">    141.23599055 </i>
    <i name="pawpsdc">   3537.72004562 </i>
    <i name="pawaedc">  -3544.06004991 </i>
    <i name="eentropy">     -0.00000000 </i>
    <i name="bandstr">   -517.55459953 </i>
    <i name="atom">   1406.67326350 </i>
    <i name="e_fr_energy">   -103.03449660 </i>
    <i name="e_wo_entrp">   -103.03449660 </i>
    <i name="e_0_energy">   -103.03449660 </i>
   </energy>
  </scstep>
  <scstep>
   <time name="diag">    0.26    0.26</time>
   <time name="diis">    1.73    2.11</time>
   <time name="orth">    0.02    0.02</time>
   <time name="total">    3.51    3.93</time>
   <energy>
    <i name="e_fr_energy">   -103.05731812 </i>
    <i name="e_wo_entrp">   -103.05731812 </i>
    <i name="e_0_energy">   -103.05731812 </i>
   </energy>
  </scstep>
  <scstep>
   <time name="diag">    0.41    0.59</time>
   <time name="diis">    1.35    2.03</time>
   <time name="orth">    0.01    0.03</time>
   <time name="total">    3.77    4.87</time>
   <energy>
    <i name="e_fr_energy">   -103.05970432 </i>
    <i name="e_wo_entrp">   -103.05970432 </i>
    <i name="e_0_energy">   -103.05970432 </i>
   </energy>
  </scstep>
  <scstep>
   <time name="diag">    0.34    0.64</time>
   <time name="diis">    1.82    2.91</time>
   <time name="orth">    0.01    0.01</time>
   <time name="total">    4.36    7.03</time>
   <energy>
    <i name="e_fr_energy">   -103.06176503 </i>
    <i name="e_wo_entrp">   -103.06176503 </i>
    <i name="e_0_energy">   -103.06176503 </i>
   </energy>
  </scstep>
  <scstep>
   <time name="diag">    0.22    0.45</time>
   <time name="diis">    1.51    2.79</time>
   <time name="orth">    0.01    0.01</time>
   <time name="total">    3.19    5.47</time>
   <energy>
    <i name="e_fr_energy">   -103.06196989 </i>
    <i name="e_wo_entrp">   -103.06196989 </i>
    <i name="e_0_energy">   -103.06196989 </i>
   </energy>
  </scstep>
  <scstep>
   <time name="diag">    0.23    0.23</time>
   <time name="diis">    1.48    1.57</time>
   <time name="orth">    0.01    0.01</time>
   <time name="total">    2.83    3.10</time>
   <energy>
    <i name="e_fr_energy">   -103.06214194 </i>
    <i name="e_wo_entrp">   -103.06214194 </i>
    <i name="e_0_energy">   -103.06214194 </i>
   </energy>
  </scstep>
  <scstep>
   <time name="diag">    0.19    0.19</time>
   <time name="diis">    0.84    1.35</time>
   <time name="orth">    0.01    0.03</time>
   <time name="total">    2.16    3.13</time>
   <energy>
    <i name="e_fr_energy">   -103.06220434 </i>
    <i name="e_wo_entrp">   -103.06220434 </i>
    <i name="e_0_energy">   -103.06220434 </i>
   </energy>
  </scstep>
  <scstep>
   <time name="diag">    0.16    0.16</time>
   <time name="diis">    0.77    0.77</time>
   <time name="orth">    0.01    0.01</time>
   <time name="total">    2.14    2.17</time>
   <energy>
    <i name="e_fr_energy">   -103.06237007 </i>
    <i name="e_wo_entrp">   -103.06237007 </i>
    <i name="e_0_energy">   -103.06237007 </i>
   </energy>
  </scstep>
  <scstep>
   <time name="diag">    0.15    0.29</time>
   <time name="diis">    0.57    0.67</time>
   <time name="orth">    0.01    0.01</time>
   <time name="total">    1.93    2.51</time>
   <energy>
    <i name="e_fr_energy">   -103.06238932 </i>
    <i name="e_wo_entrp">   -103.06238932 </i>
    <i name="e_0_energy">   -103.06238932 </i>
   </energy>
  </scstep>
  <scstep>
   <time name="diag">    0.16    0.16</time>
   <time name="diis">    0.73    0.73</time>
   <time name="orth">    0.01    0.01</time>
   <time name="total">    2.18    2.52</time>
   <energy>
    <i name="e_fr_energy">   -103.06256640 </i>
    <i name="e_wo_entrp">   -103.06256640 </i>
    <i name="e_0_energy">   -103.06256640 </i>
   </energy>
  </scstep>
  <scstep>
   <time name="diag">    0.13    0.14</time>
   <time name="diis">    0.47    0.47</time>
   <time name="orth">    0.02    0.02</time>
   <time name="total">    1.43    1.49</time>
   <energy>
    <i name="alphaZ">      2.15216506 </i>
    <i name="ewald">   2650.84831936 </i>
    <i name="hartreedc">  -3781.59688383 </i>
    <i name="XCdc">    141.28113946 </i>
    <i name="pawpsdc">   3573.35319112 </i>
    <i name="pawaedc">  -3579.70743821 </i>
    <i name="eentropy">     -0.00000000 </i>
    <i name="bandstr">   -516.06632862 </i>
    <i name="atom">   1406.67326350 </i>
    <i name="e_fr_energy">   -103.06257216 </i>
    <i name="e_wo_entrp">   -103.06257216 </i>
    <i name="e_0_energy">   -103.06257216 </i>
   </energy>
  </scstep>
  <structure>
   <crystal>
    <varray name="basis" >
     <v>      15.40225029       0.00000000       0.00000000 </v>
     <v>       0.00000000      15.40225029       0.00000000 </v>
     <v>       0.00000000       0.00000000      15.40225029 </v>
    </varray>
    <i name="volume">   3653.86527022 </i>
    <varray name="rec_basis" >
     <v>       0.06492558       0.00000000       0.00000000 </v>
     <v>       0.00000000       0.06492558       0.00000000 </v>
     <v>       0.00000000       0.00000000       0.06492558 </v>
    </varray>
   </crystal>
   <varray name="positions" >
    <v>       0.33805854       0.43877352       0.56514449 </v>
    <v>       0.33259684       0.52555894       0.56410518 </v>
    <v>       0.41379317       0.57356783       0.54127147 </v>
    <v>       0.42398689       0.40115461       0.53926694 </v>
    <v>       0.44742512       0.44076392       0.45399029 </v>
    <v>       0.44524728       0.54026155       0.45676119 </v>
    <v>       0.52790670       0.57816447       0.43494765 </v>
    <v>       0.28436781       0.39693800       0.58579332 </v>
    <v>       0.47350335       0.41670770       0.58923241 </v>
    <v>       0.42342184       0.33087179       0.53393860 </v>
    <v>       0.27453099       0.56135355       0.58390845 </v>
    <v>       0.46339180       0.56386405       0.59257061 </v>
    <v>       0.40631500       0.64267936       0.53128948 </v>
    <v>       0.40312120       0.42038536       0.40230619 </v>
    <v>       0.51065164       0.42059731       0.43211053 </v>
    <v>       0.40139084       0.56019539       0.40410584 </v>
    <v>       0.59403947       0.60657032       0.41034322 </v>
   </varray>
  </structure>
  <varray name="forces" >
   <v>      -0.22586522      -0.11389811       0.48337170 </v>
   <v>      -0.34635126       0.19276562       0.62001815 </v>
   <v>      -0.62744763       0.55547134       0.93499306 </v>
   <v>      -0.36282654      -0.29869989       0.66899815 </v>
   <v>       0.46234644       0.00589002      -1.03903526 </v>
   <v>       0.45027245      -0.47150817      -1.27920439 </v>
   <v>       1.09598757       0.25732297      -0.75190424 </v>
   <v>       0.03306044       0.09575039      -0.12043649 </v>
   <v>      -0.00863172       0.00435148      -0.10518132 </v>
   <v>      -0.12421939      -0.45744373       0.02120718 </v>
   <v>      -0.00942485      -0.10433410      -0.08318743 </v>
   <v>      -0.03269142       0.06053938      -0.14426942 </v>
   <v>      -0.35050879       0.65851046       0.49069566 </v>
   <v>      -0.25546375      -0.25280520       0.06433507 </v>
   <v>       0.79028368      -0.38445862      -0.13702092 </v>
   <v>      -0.21465485       0.30880043       0.06510012 </v>
   <v>      -0.27386514      -0.05625427       0.31152035 </v>
  </varray>
  <varray name="stress" >
   <v>       0.68610159      -0.31660538      -1.28443131 </v>
   <v>      -0.31660538       1.22489354       0.37589180 </v>
   <v>      -1.28443131       0.37589180       0.72724361 </v>
  </varray>
  <energy>
   <i name="e_fr_energy">   -103.26258770 </i>
   <i name="e_wo_entrp">   -103.26258770 </i>
   <i name="e_0_energy">   -103.26258770 </i>
  </energy>
  <time name="totalsc">   36.92   47.87</time>
 </calculation>
 <calculation>
  <scstep>
   <time name="dav">    1.18    1.31</time>
   <time name="total">    2.54    2.85</time>
   <energy>
    <i name="alphaZ">      2.15216506 </i>
    <i name="ewald">   2654.06448690 </i>
    <i name="hartreedc">  -3784.04211397 </i>
    <i name="XCdc">    141.32073557 </i>
    <i name="pawpsdc">   3573.36143968 </i>
    <i name="pawaedc">  -3579.71568044 </i>
    <i name="eentropy">     -0.00000000 </i>
    <i name="bandstr">   -516.82566488 </i>
    <i name="atom">   1406.67326350 </i>
    <i name="e_fr_energy">   -103.01136857 </i>
    <i name="e_wo_entrp">   -103.01136857 </i>
    <i name="e_0_energy">   -103.01136857 </i>
   </energy>
  </scstep>
  <scstep>
   <time name="diag">    0.38    0.76</time>
   <time name="diis">    2.48    4.48</time>
   <time name="orth">    0.05    0.09</time>
   <time name="total">    5.09    9.21</time>
   <energy>
    <i name="e_fr_energy">   -103.01453508 </i>
    <i name="e_wo_entrp">   -103.01453508 </i>
    <i name="e_0_energy">   -103.01453508 </i>
   </energy>
  </scstep>
  <scstep>
   <time name="diag">    0.41    0.53</time>
   <time name="diis">    1.72    2.08</time>
   <time name="orth">    0.02    0.02</time>
   <time name="total">    4.46    5.27</time>
   <energy>
    <i name="e_fr_energy">   -103.01499512 </i>
    <i name="e_wo_entrp">   -103.01499512 </i>
    <i name="e_0_energy">   -103.01499512 </i>
   </energy>
  </scstep>
  <scstep>
   <time name="diag">    0.50    0.61</time>
   <time name="diis">    2.23    2.72</time>
   <time name="orth">    0.02    0.03</time>
   <time name="total">    4.83    6.27</time>
   <energy>
    <i name="e_fr_energy">   -103.01529720 </i>
    <i name="e_wo_entrp">   -103.01529720 </i>
    <i name="e_0_energy">   -103.01529720 </i>
   </energy>
  </scstep>
  <scstep>
   <time name="diag">    0.38    0.40</time>
   <time name="diis">    1.41    1.64</time>
   <time name="orth">    0.01    0.01</time>
   <time name="total">    3.46    3.95</time>
   <energy>
    <i name="e_fr_energy">   -103.01534798 </i>
    <i name="e_wo_entrp">   -103.01534798 </i>
    <i name="e_0_energy">   -103.01534798 </i>
   </energy>
  </scstep>
  <scstep>
   <time name="diag">    0.08    0.11</time>
   <time name="diis">    0.53    0.65</time>
   <time name="orth">    0.02    0.02</time>
   <time name="total">    1.41    1.94</time>
   <energy>
    <i name="e_fr_energy">   -103.01537466 </i>
    <i name="e_wo_entrp">   -103.01537466 </i>
    <i name="e_0_energy">   -103.01537466 </i>
   </energy>
  </scstep>
  <scstep>
   <time name="diag">    0.13    0.14</time>
   <time name="diis">    0.51    0.52</time>
   <time name="orth">    0.02    0.02</time>
   <time name="total">    1.68    1.81</time>
   <energy>
    <i name="e_fr_energy">   -103.01540138 </i>
    <i name="e_wo_entrp">   -103.01540138 </i>
    <i name="e_0_energy">   -103.01540138 </i>
   </energy>
  </scstep>
  <scstep>
   <time name="diag">    0.12    0.12</time>
   <time name="diis">    0.46    0.54</time>
   <time name="orth">    0.01    0.01</time>
   <time name="total">    1.55    1.66</time>
   <energy>
    <i name="e_fr_energy">   -103.01543662 </i>
    <i name="e_wo_entrp">   -103.01543662 </i>
    <i name="e_0_energy">   -103.01543662 </i>
   </energy>
  </scstep>
  <scstep>
   <time name="diag">    0.11    0.22</time>
   <time name="diis">    0.40    0.80</time>
[...]
   <v>       0.00207173       0.00034781      -0.00256898 </v>
   <v>       0.00669967      -0.00617833      -0.01604755 </v>
   <v>      -0.00049165      -0.00015223      -0.00793192 </v>
   <v>      -0.00323881      -0.00265942       0.00844699 </v>
   <v>      -0.00571825       0.00293879       0.00883750 </v>
   <v>      -0.02914135      -0.00538299       0.01165452 </v>
   <v>      -0.00140483       0.00416651       0.00543292 </v>
   <v>      -0.00095149      -0.00216051       0.00004839 </v>
   <v>      -0.00465129      -0.00046847       0.00011676 </v>
   <v>       0.00787474       0.00641955       0.00524013 </v>
   <v>       0.00915954      -0.00526428      -0.00864207 </v>
   <v>       0.01093997      -0.00545348      -0.01166507 </v>
   <v>       0.00245401      -0.00694008      -0.00233800 </v>
   <v>      -0.00161298       0.00000987      -0.00045006 </v>
   <v>      -0.00504387      -0.00869751      -0.00435864 </v>
   <v>       0.01476788       0.02818888       0.01577290 </v>
  </varray>
  <varray name="stress" >
   <v>      -0.85748382       0.02380234       0.03163687 </v>
   <v>       0.02380234      -0.82905841      -0.00404768 </v>
   <v>       0.03163687      -0.00404768      -0.89969687 </v>
  </varray>
  <energy>
   <i name="e_fr_energy">   -103.56605002 </i>
   <i name="e_wo_entrp">   -103.56605002 </i>
   <i name="e_0_energy">   -103.56605002 </i>
  </energy>
  <time name="totalsc">   22.57   28.67</time>
 </calculation>
 <calculation>
  <scstep>
   <time name="dav">    1.74    1.81</time>
   <time name="total">    3.09    3.46</time>
   <energy>
    <i name="alphaZ">      2.15216506 </i>
    <i name="ewald">   2559.59317192 </i>
    <i name="hartreedc">  -3693.69300824 </i>
    <i name="XCdc">    140.43558657 </i>
    <i name="pawpsdc">   3430.57818804 </i>
    <i name="pawaedc">  -3436.87372265 </i>
    <i name="eentropy">     -0.00000000 </i>
    <i name="bandstr">   -512.23316360 </i>
    <i name="atom">   1406.67326350 </i>
    <i name="e_fr_energy">   -103.36751940 </i>
    <i name="e_wo_entrp">   -103.36751940 </i>
    <i name="e_0_energy">   -103.36751940 </i>
   </energy>
  </scstep>
  <scstep>
   <time name="diag">    0.33    0.44</time>
   <time name="diis">    1.31    2.30</time>
   <time name="orth">    0.01    0.03</time>
   <time name="total">    2.83    4.14</time>
   <energy>
    <i name="e_fr_energy">   -103.36759640 </i>
    <i name="e_wo_entrp">   -103.36759640 </i>
    <i name="e_0_energy">   -103.36759640 </i>
   </energy>
  </scstep>
  <scstep>
   <time name="diag">    0.23    0.33</time>
   <time name="diis">    1.16    1.69</time>
   <time name="orth">    0.01    0.02</time>
   <time name="total">    2.94    4.23</time>
   <energy>
    <i name="e_fr_energy">   -103.36761282 </i>
    <i name="e_wo_entrp">   -103.36761282 </i>
    <i name="e_0_energy">   -103.36761282 </i>
   </energy>
  </scstep>
  <scstep>
   <time name="diag">    0.22    0.44</time>
   <time name="diis">    1.12    1.19</time>
   <time name="orth">    0.02    0.02</time>
   <time name="total">    2.15    2.73</time>
   <energy>
    <i name="alphaZ">      2.15216506 </i>
    <i name="ewald">   2559.59317192 </i>
    <i name="hartreedc">  -3693.65001517 </i>
    <i name="XCdc">    140.43351166 </i>
    <i name="pawpsdc">   3429.81480963 </i>
    <i name="pawaedc">  -3436.10956391 </i>
    <i name="eentropy">     -0.00000000 </i>
    <i name="bandstr">   -512.27496077 </i>
    <i name="atom">   1406.67326350 </i>
    <i name="e_fr_energy">   -103.36761808 </i>
    <i name="e_wo_entrp">   -103.36761808 </i>
    <i name="e_0_energy">   -103.36761808 </i>
   </energy>
  </scstep>
  <structure>
   <crystal>
    <varray name="basis" >
     <v>      15.40225029       0.00000000       0.00000000 </v>
     <v>       0.00000000      15.40225029       0.00000000 </v>
     <v>       0.00000000       0.00000000      15.40225029 </v>
    </varray>
    <i name="volume">   3653.86527022 </i>
    <varray name="rec_basis" >
     <v>       0.06492558       0.00000000       0.00000000 </v>
     <v>       0.00000000       0.06492558       0.00000000 </v>
     <v>       0.00000000       0.00000000       0.06492558 </v>
    </varray>
   </crystal>
   <varray name="positions" >
    <v>       0.33831229       0.43961807       0.56897662 </v>
    <v>       0.33387953       0.52651751       0.57009550 </v>
    <v>       0.41149181       0.57779016       0.54064966 </v>
    <v>       0.42062860       0.39761985       0.53780963 </v>
    <v>       0.45233043       0.43921703       0.45235750 </v>
    <v>       0.44658598       0.54066317       0.45312787 </v>
    <v>       0.53009860       0.57953295       0.43069189 </v>
    <v>       0.28365788       0.39946763       0.58973417 </v>
    <v>       0.47168696       0.40556955       0.58770731 </v>
    <v>       0.41269479       0.32729876       0.52854421 </v>
    <v>       0.27555447       0.56060550       0.59165298 </v>
    <v>       0.46378281       0.57353470       0.58960045 </v>
    <v>       0.39652901       0.64711068       0.53297688 </v>
    <v>       0.41202504       0.41509168       0.39862925 </v>
    <v>       0.51930201       0.41858396       0.43890239 </v>
    <v>       0.40047220       0.56102221       0.40231589 </v>
    <v>       0.59762056       0.60920371       0.41287408 </v>
   </varray>
  </structure>
  <varray name="forces" >
   <v>      -0.00179704       0.00146440      -0.00242479 </v>
   <v>       0.00164870      -0.00101074      -0.00435194 </v>
   <v>       0.00558203      -0.00721812      -0.01476258 </v>
   <v>      -0.00078988       0.00046021      -0.00701584 </v>
   <v>      -0.00320952      -0.00252028       0.00848569 </v>
   <v>      -0.01272778      -0.00054278       0.01119414 </v>
   <v>       0.03943528       0.02422913      -0.00627819 </v>
   <v>      -0.00079949       0.00362499       0.00667297 </v>
   <v>      -0.00163320      -0.00226472       0.00088829 </v>
   <v>      -0.00379805      -0.00052293      -0.00132873 </v>
   <v>       0.00862340       0.00667408       0.00562340 </v>
   <v>       0.00781625      -0.00568935      -0.00734741 </v>
   <v>       0.01197517      -0.00613471      -0.01477715 </v>
   <v>       0.00173382      -0.00459812      -0.00130531 </v>
   <v>      -0.00122216       0.00166211      -0.00000122 </v>
   <v>      -0.00493696      -0.00849351      -0.00349397 </v>
   <v>      -0.04590057       0.00088034       0.03022265 </v>
  </varray>
  <varray name="stress" >
   <v>      -0.87929576       0.01450252       0.03576626 </v>
   <v>       0.01450252      -0.83753179      -0.00515920 </v>
   <v>       0.03576626      -0.00515920      -0.90017189 </v>
  </varray>
  <energy>
   <i name="e_fr_energy">   -103.56626182 </i>
   <i name="e_wo_entrp">   -103.56626182 </i>
   <i name="e_0_energy">   -103.56626182 </i>
  </energy>
  <time name="totalsc">   18.84   26.36</time>
 </calculation>
 <calculation>
  <scstep>
   <time name="dav">    2.66    2.82</time>
   <time name="total">    5.17    5.55</time>
   <energy>
    <i name="alphaZ">      2.15216506 </i>
    <i name="ewald">   2559.60209961 </i>
    <i name="hartreedc">  -3693.63017314 </i>
    <i name="XCdc">    140.43530884 </i>
    <i name="pawpsdc">   3429.63698685 </i>
    <i name="pawaedc">  -3435.93177416 </i>
    <i name="eentropy">     -0.00000000 </i>
    <i name="bandstr">   -512.30538191 </i>
    <i name="atom">   1406.67326350 </i>
    <i name="e_fr_energy">   -103.36750535 </i>
    <i name="e_wo_entrp">   -103.36750535 </i>
    <i name="e_0_energy">   -103.36750535 </i>
   </energy>
  </scstep>
  <scstep>
   <time name="diag">    0.25    0.33</time>
   <time name="diis">    0.99    1.45</time>
   <time name="orth">    0.02    0.02</time>
   <time name="total">    2.49    3.63</time>
   <energy>
    <i name="e_fr_energy">   -103.36752944 </i>
    <i name="e_wo_entrp">   -103.36752944 </i>
    <i name="e_0_energy">   -103.36752944 </i>
   </energy>
  </scstep>
  <scstep>
   <time name="diag">    0.34    0.35</time>
   <time name="diis">    0.75    0.94</time>
   <time name="orth">    0.00    0.00</time>
   <time name="total">    2.33    2.61</time>
   <energy>
    <i name="alphaZ">      2.15216506 </i>
    <i name="ewald">   2559.60209961 </i>
    <i name="hartreedc">  -3693.65888281 </i>
    <i name="XCdc">    140.43669620 </i>
    <i name="pawpsdc">   3429.83685167 </i>
    <i name="pawaedc">  -3436.13213517 </i>
    <i name="eentropy">     -0.00000000 </i>
    <i name="bandstr">   -512.27759461 </i>
    <i name="atom">   1406.67326350 </i>
    <i name="e_fr_energy">   -103.36753656 </i>
    <i name="e_wo_entrp">   -103.36753656 </i>
    <i name="e_0_energy">   -103.36753656 </i>
   </energy>
  </scstep>
  <structure>
   <crystal>
    <varray name="basis" >
     <v>      15.40225029       0.00000000       0.00000000 </v>
     <v>       0.00000000      15.40225029       0.00000000 </v>
     <v>       0.00000000       0.00000000      15.40225029 </v>
    </varray>
    <i name="volume">   3653.86527022 </i>
    <varray name="rec_basis" >
     <v>       0.06492558       0.00000000       0.00000000 </v>
     <v>       0.00000000       0.06492558       0.00000000 </v>
     <v>       0.00000000       0.00000000       0.06492558 </v>
    </varray>
   </crystal>
   <varray name="positions" >
    <v>       0.33830758       0.43960700       0.56897075 </v>
    <v>       0.33386442       0.52650627       0.57008712 </v>
    <v>       0.41147516       0.57779986       0.54066612 </v>
    <v>       0.42062782       0.39761640       0.53780851 </v>
    <v>       0.45234631       0.43924189       0.45237746 </v>
    <v>       0.44660335       0.54068179       0.45316034 </v>
    <v>       0.53013638       0.57952550       0.43068140 </v>
    <v>       0.28366682       0.39945070       0.58975063 </v>
    <v>       0.47167083       0.40554038       0.58772585 </v>
    <v>       0.41269614       0.32730016       0.52850311 </v>
    <v>       0.27554301       0.56058767       0.59166106 </v>
    <v>       0.46373719       0.57356695       0.58964922 </v>
    <v>       0.39649621       0.64711230       0.53296036 </v>
    <v>       0.41204196       0.41513796       0.39863885 </v>
    <v>       0.51932020       0.41861591       0.43892608 </v>
    <v>       0.40049568       0.56104472       0.40234498 </v>
    <v>       0.59763581       0.60911179       0.41275726 </v>
   </varray>
  </structure>
  <varray name="forces" >
   <v>      -0.00102284       0.00311842      -0.00150623 </v>
   <v>       0.00322164       0.00163807      -0.00324487 </v>
   <v>       0.00757486      -0.00797284      -0.01801804 </v>
   <v>      -0.00009859       0.00127556      -0.00801497 </v>
   <v>      -0.00266290      -0.00483712       0.00706944 </v>
   <v>      -0.00740331      -0.00115500       0.00655389 </v>
   <v>      -0.01543952       0.00072968       0.00655263 </v>
   <v>      -0.00115271       0.00418917       0.00612647 </v>
   <v>      -0.00080477      -0.00155006       0.00027954 </v>
   <v>      -0.00398640      -0.00012675       0.00041401 </v>
   <v>       0.00826468       0.00712229       0.00540461 </v>
   <v>       0.00922724      -0.00565186      -0.00858219 </v>
   <v>       0.01225575      -0.00580044      -0.01284477 </v>
   <v>       0.00259656      -0.00664337      -0.00179206 </v>
   <v>      -0.00095261       0.00062119      -0.00015325 </v>
   <v>      -0.00494982      -0.00873144      -0.00476120 </v>
   <v>      -0.00466724       0.02377449       0.02651696 </v>
  </varray>
  <varray name="stress" >
   <v>      -0.86365568       0.02138388       0.03482646 </v>
   <v>       0.02138388      -0.83073826      -0.00380046 </v>
   <v>       0.03482646      -0.00380046      -0.89888976 </v>
  </varray>
  <energy>
   <i name="e_fr_energy">   -103.56616280 </i>
   <i name="e_wo_entrp">   -103.56616280 </i>
   <i name="e_0_energy">   -103.56616280 </i>
  </energy>
  <time name="totalsc">   17.24   21.54</time>
 </calculation>
 <calculation>
  <scstep>
   <time name="dav">    1.84    2.66</time>
   <time name="total">    3.56    4.61</time>
   <energy>
    <i name="alphaZ">      2.15216506 </i>
    <i name="ewald">   2559.65924888 </i>
    <i name="hartreedc">  -3693.71544852 </i>
    <i name="XCdc">    140.43700434 </i>
    <i name="pawpsdc">   3430.02421395 </i>
    <i name="pawaedc">  -3436.31957134 </i>
    <i name="eentropy">     -0.00000000 </i>
    <i name="bandstr">   -512.27845642 </i>
    <i name="atom">   1406.67326350 </i>
    <i name="e_fr_energy">   -103.36758054 </i>
    <i name="e_wo_entrp">   -103.36758054 </i>
    <i name="e_0_energy">   -103.36758054 </i>
   </energy>
  </scstep>
  <scstep>
   <time name="diag">    0.29    0.30</time>
   <time name="diis">    0.74    1.54</time>
   <time name="orth">    0.00    0.00</time>
   <time name="total">    2.65    4.06</time>
   <energy>
    <i name="alphaZ">      2.15216506 </i>
    <i name="ewald">   2559.65924888 </i>
    <i name="hartreedc">  -3693.71550514 </i>
    <i name="XCdc">    140.43706125 </i>
    <i name="pawpsdc">   3430.12053146 </i>
    <i name="pawaedc">  -3436.41589043 </i>
    <i name="eentropy">     -0.00000000 </i>
    <i name="bandstr">   -512.27846054 </i>
    <i name="atom">   1406.67326350 </i>
    <i name="e_fr_energy">   -103.36758595 </i>
    <i name="e_wo_entrp">   -103.36758595 </i>
    <i name="e_0_energy">   -103.36758595 </i>
   </energy>
  </scstep>
  <structure>
   <crystal>
    <varray name="basis" >
     <v>      15.40225029       0.00000000       0.00000000 </v>
     <v>       0.00000000      15.40225029       0.00000000 </v>
     <v>       0.00000000       0.00000000      15.40225029 </v>
    </varray>
    <i name="volume">   3653.86527022 </i>
    <varray name="rec_basis" >
     <v>       0.06492558       0.00000000       0.00000000 </v>
     <v>       0.00000000       0.06492558       0.00000000 </v>
     <v>       0.00000000       0.00000000       0.06492558 </v>
    </varray>
   </crystal>
   <varray name="positions" >
    <v>       0.33830952       0.43961204       0.56897294 </v>
    <v>       0.33387117       0.52651157       0.57008975 </v>
    <v>       0.41148267       0.57779414       0.54065825 </v>
    <v>       0.42062789       0.39761830       0.53780946 </v>
    <v>       0.45233875       0.43923126       0.45236827 </v>
    <v>       0.44659403       0.54067182       0.45314521 </v>
    <v>       0.53012628       0.57953194       0.43068443 </v>
    <v>       0.28366301       0.39945909       0.58974380 </v>
    <v>       0.47167830       0.40555490       0.58771729 </v>
    <v>       0.41269601       0.32729963       0.52852247 </v>
    <v>       0.27555003       0.56059702       0.59165764 </v>
    <v>       0.46375928       0.57355031       0.58962567 </v>
    <v>       0.39651398       0.64711048       0.53296540 </v>
    <v>       0.41203289       0.41511646       0.39863470 </v>
    <v>       0.51931128       0.41860165       0.43891487 </v>
    <v>       0.40048413       0.56103337       0.40233110 </v>
    <v>       0.59761974       0.60915321       0.41281651 </v>
   </varray>
  </structure>
  <varray name="forces" >
   <v>      -0.00188784       0.00238991      -0.00187845 </v>
   <v>       0.00210645      -0.00058977      -0.00356892 </v>
   <v>       0.00685171      -0.00682990      -0.01621292 </v>
   <v>      -0.00068736       0.00026614      -0.00737712 </v>
   <v>      -0.00314920      -0.00416351       0.00870114 </v>
   <v>      -0.00638773       0.00228071       0.00958888 </v>
   <v>      -0.01916393      -0.00253174       0.00792406 </v>
   <v>      -0.00150676       0.00372827       0.00647000 </v>
   <v>      -0.00171600      -0.00212792       0.00078061 </v>
   <v>      -0.00430453      -0.00030290      -0.00052139 </v>
   <v>       0.00763146       0.00682052       0.00567097 </v>
   <v>       0.00766644      -0.00539398      -0.00771703 </v>
   <v>       0.01137044      -0.00562016      -0.01349496 </v>
   <v>       0.00209762      -0.00532212      -0.00130098 </v>
   <v>      -0.00083925       0.00109323       0.00001023 </v>
   <v>      -0.00505321      -0.00805437      -0.00371619 </v>
   <v>       0.00697170       0.02435758       0.01664207 </v>
  </varray>
  <varray name="stress" >
   <v>      -0.86072625       0.02130861       0.03021634 </v>
   <v>       0.02130861      -0.83300110      -0.00647827 </v>
   <v>       0.03021634      -0.00647827      -0.89864715 </v>
  </varray>
  <energy>
   <i name="e_fr_energy">   -103.56622270 </i>
   <i name="e_wo_entrp">   -103.56622270 </i>
   <i name="e_0_energy">   -103.56622270 </i>
  </energy>
  <time name="totalsc">   12.34   18.46</time>
  <eigenvalues>
   <array>
    <dimension dim="1">band</dimension>
    <dimension dim="2">kpoint</dimension>
    <dimension dim="3">spin</dimension>
    <field>eigene</field>
    <field>occ</field>
    <set>
     <set comment="spin 1">
      <set comment="kpoint 1">
       <r>  -22.2533    1.0000 </r>
       <r>  -21.1554    1.0000 </r>
       <r>  -19.1035    1.0000 </r>
       <r>  -18.6456    1.0000 </r>
       <r>  -15.9474    1.0000 </r>
       <r>  -15.3997    1.0000 </r>
       <r>  -12.9941    1.0000 </r>
       <r>  -12.6399    1.0000 </r>
       <r>  -12.4880    1.0000 </r>
       <r>  -10.7417    1.0000 </r>
       <r>  -10.6243    1.0000 </r>
       <r>  -10.2452    1.0000 </r>
       <r>   -9.8119    1.0000 </r>
       <r>   -9.5619    1.0000 </r>
       <r>   -8.7132    1.0000 </r>
       <r>   -8.5429    1.0000 </r>
       <r>   -8.2631    1.0000 </r>
       <r>   -7.7546    1.0000 </r>
       <r>   -7.5498    1.0000 </r>
       <r>   -7.5115    1.0000 </r>
       <r>   -6.1920    1.0000 </r>
       <r>   -1.0392    0.0000 </r>
       <r>   -0.7077    0.0000 </r>
       <r>   -0.2113    0.0000 </r>
       <r>   -0.1950    0.0000 </r>
       <r>   -0.0010    0.0000 </r>
       <r>    0.1197    0.0000 </r>
       <r>    0.1907    0.0000 </r>
       <r>    0.3862    0.0000 </r>
       <r>    0.5015    0.0000 </r>
      </set>
     </set>
    </set>
   </array>
  </eigenvalues>
  <separator name="orbital magnetization" >
   <v name="MAGDIPOLOUT">      0.00000000      0.00000000      0.00000000</v>
  </separator>
 </calculation>
 <structure name="finalpos" >
  <crystal>
   <varray name="basis" >
    <v>      15.40225029       0.00000000       0.00000000 </v>
    <v>       0.00000000      15.40225029       0.00000000 </v>
    <v>       0.00000000       0.00000000      15.40225029 </v>
   </varray>
   <i name="volume">   3653.86527022 </i>
   <varray name="rec_basis" >
    <v>       0.06492558       0.00000000       0.00000000 </v>
    <v>       0.00000000       0.06492558       0.00000000 </v>
    <v>       0.00000000       0.00000000       0.06492558 </v>
   </varray>
  </crystal>
  <varray name="positions" >
   <v>       0.33830952       0.43961204       0.56897294 </v>
   <v>       0.33387117       0.52651157       0.57008975 </v>
   <v>       0.41148267       0.57779414       0.54065825 </v>
   <v>       0.42062789       0.39761830       0.53780946 </v>
   <v>       0.45233875       0.43923126       0.45236827 </v>
   <v>       0.44659403       0.54067182       0.45314521 </v>
   <v>       0.53012628       0.57953194       0.43068443 </v>
   <v>       0.28366301       0.39945909       0.58974380 </v>
   <v>       0.47167830       0.40555490       0.58771729 </v>
   <v>       0.41269601       0.32729963       0.52852247 </v>
   <v>       0.27555003       0.56059702       0.59165764 </v>
   <v>       0.46375928       0.57355031       0.58962567 </v>
   <v>       0.39651398       0.64711048       0.53296540 </v>
   <v>       0.41203289       0.41511646       0.39863470 </v>
   <v>       0.51931128       0.41860165       0.43891487 </v>
   <v>       0.40048413       0.56103337       0.40233110 </v>
   <v>       0.59761974       0.60915321       0.41281651 </v>
  </varray>
 </structure>
</modeling>
