unknown system                          
           1
    15.402250    0.000000    0.000000
     0.000000   15.402250    0.000000
     0.000000    0.000000   15.402250
   C    H    N 
     7     9     1
Direct configuration=     1
   0.33971429  0.43936223  0.56946103
   0.33441179  0.52615209  0.56847782
   0.41336030  0.57553170  0.54309087
   0.42358908  0.40068747  0.54153166
   0.44729083  0.43837408  0.44922747
   0.44532864  0.53975540  0.45165966
   0.52897831  0.57769973  0.43026613
   0.28246075  0.39914736  0.57906053
   0.47665303  0.42197794  0.58355135
   0.42235475  0.32964617  0.54192313
   0.27277231  0.55989736  0.57699495
   0.46789881  0.56166892  0.58634483
   0.40298902  0.64587936  0.54275591
   0.39909657  0.41358837  0.40328772
   0.51118024  0.41453527  0.42888371
   0.39840296  0.56301927  0.40403265
   0.59544798  0.61146025  0.41705441
Direct configuration=     2
   0.33956053  0.43947426  0.56919965
   0.33420093  0.52608290  0.56831170
   0.41371324  0.57515879  0.54210255
   0.42390176  0.40091316  0.54050882
   0.44700378  0.43812901  0.45040570
   0.44498247  0.54003325  0.45272813
   0.52881334  0.57774988  0.43052515
   0.28247520  0.39898154  0.57939800
   0.47670431  0.42175473  0.58406072
   0.42243222  0.32970453  0.54157992
   0.27280744  0.55997715  0.57734445
   0.46786568  0.56177371  0.58690038
   0.40318052  0.64570104  0.54217714
   0.39921849  0.41388755  0.40303661
   0.51117102  0.41477446  0.42899332
   0.39841863  0.56297885  0.40376519
   0.59556559  0.61130931  0.41673014
Direct configuration=     3
   0.33936132  0.43949338  0.56870866
   0.33399289  0.52601805  0.56790386
   0.41421950  0.57472045  0.54094662
   0.42433344  0.40116748  0.53941674
   0.44670882  0.43784525  0.45176369
   0.44444536  0.54046975  0.45413917
   0.52888498  0.57797564  0.43095963
   0.28256967  0.39871943  0.58001551
   0.47656921  0.42128412  0.58477008
   0.42256482  0.32991599  0.54090796
   0.27286945  0.56014385  0.57799173
   0.46759742  0.56198416  0.58769651
   0.40354507  0.64525610  0.54109590
   0.39956944  0.41450618  0.40277387
   0.51099753  0.41530181  0.42927981
   0.39861891  0.56277660  0.40352060
   0.59532973  0.61080810  0.41618809
Direct configuration=     4
   0.33924490  0.43947820  0.56833236
   0.33388608  0.52596341  0.56755243
   0.41447500  0.57449425  0.54041348
   0.42454090  0.40125780  0.53894679
   0.44659493  0.43780435  0.45243738
   0.44422832  0.54071816  0.45489990
   0.52854479  0.57793173  0.43139588
   0.28267264  0.39853215  0.58049815
   0.47638693  0.42090466  0.58523610
   0.42266281  0.33009927  0.54036246
   0.27294180  0.56027244  0.57849561
   0.46731591  0.56214809  0.58822097
   0.40382743  0.64489973  0.54024661
   0.39987526  0.41500403  0.40264756
   0.51084443  0.41574166  0.42952712
   0.39882769  0.56257738  0.40343312
   0.59543690  0.61056076  0.41567977
Direct configuration=     5
   0.33913902  0.43942418  0.56792250
   0.33379589  0.52590542  0.56712879
   0.41458370  0.57435409  0.54022898
   0.42462303  0.40126050  0.53880182
   0.44658863  0.43796304  0.45281195
   0.44413954  0.54083399  0.45539585
   0.52850624  0.57801872  0.43181229
   0.28282668  0.39834008  0.58105552
   0.47610624  0.42045923  0.58568925
   0.42276583  0.33029636  0.53970919
   0.27306567  0.56041003  0.57907262
   0.46692563  0.56233341  0.58872726
   0.40414091  0.64451627  0.53926713
   0.40024797  0.41558865  0.40257718
   0.51068502  0.41627247  0.42982518
   0.39910868  0.56231148  0.40344043
   0.59520914  0.61010220  0.41514905
Direct configuration=     6
   0.33880738  0.43916429  0.56681232
   0.33345025  0.52579119  0.56591052
   0.41439750  0.57408734  0.54061181
   0.42446117  0.40118171  0.53902857
   0.44684030  0.43896339  0.45324256
   0.44446062  0.54070767  0.45594764
   0.52820013  0.57808683  0.43305725
   0.28338244  0.39781850  0.58277139
   0.47515162  0.41909370  0.58695724
   0.42303346  0.33065073  0.53764026
   0.27358334  0.56077246  0.58082798
   0.46563100  0.56288927  0.59010808
   0.40500200  0.64365528  0.53631496
   0.40134991  0.41736316  0.40248540
   0.51046708  0.41789506  0.43070005
   0.39998709  0.56148720  0.40367671
   0.59471960  0.60878869  0.41341640
Direct configuration=     7
   0.33805854  0.43877352  0.56514449
   0.33259684  0.52555894  0.56410518
   0.41379317  0.57356783  0.54127147
   0.42398689  0.40115461  0.53926694
   0.44742512  0.44076392  0.45399029
   0.44524728  0.54026155  0.45676119
   0.52790670  0.57816447  0.43494765
   0.28436781  0.39693800  0.58579332
   0.47350335  0.41670770  0.58923241
   0.42342184  0.33087179  0.53393860
   0.27453099  0.56135355  0.58390845
   0.46339180  0.56386405  0.59257061
   0.40631500  0.64267936  0.53128948
   0.40312120  0.42038536  0.40230619
   0.51065164  0.42059731  0.43211053
   0.40139084  0.56019539  0.40410584
   0.59403947  0.60657032  0.41034322
Direct configuration=     8
   0.33765673  0.43860060  0.56469160
   0.33212010  0.52548977  0.56361967
   0.41340717  0.57351510  0.54154128
   0.42371155  0.40108591  0.53934131
   0.44778753  0.44138350  0.45418198
   0.44562899  0.54004823  0.45700462
   0.52822728  0.57827936  0.43539793
   0.28477335  0.39663865  0.58696808
   0.47281959  0.41576697  0.59009814
   0.42351242  0.33082228  0.53244803
   0.27491821  0.56153128  0.58510547
   0.46248675  0.56425707  0.59350985
   0.40670216  0.64249409  0.52945120
   0.40373859  0.42150093  0.40224420
   0.51105608  0.42155488  0.43260353
   0.40187837  0.55978704  0.40430592
   0.59365216  0.60565645  0.40920200
Direct configuration=     9
   0.33710800  0.43841873  0.56425823
   0.33147256  0.52539723  0.56318733
   0.41298494  0.57353653  0.54158656
   0.42343201  0.40096293  0.53919371
   0.44827400  0.44187326  0.45456988
   0.44604467  0.53998127  0.45751965
   0.52846013  0.57830053  0.43591907
   0.28523967  0.39627878  0.58840920
   0.47196058  0.41459608  0.59116441
   0.42357497  0.33073742  0.53060951
   0.27533349  0.56173061  0.58658432
   0.46135751  0.56476798  0.59467822
   0.40708270  0.64232873  0.52731191
   0.40445052  0.42280427  0.40212993
   0.51175614  0.42263402  0.43317575
   0.40242686  0.55938332  0.40451374
   0.59352855  0.60468598  0.40768883
Direct configuration=    10
   0.33680022  0.43834974  0.56427970
   0.33110585  0.52536286  0.56324631
   0.41269650  0.57374679  0.54152267
   0.42325475  0.40078647  0.53902905
   0.44868420  0.44185736  0.45470016
   0.44629505  0.54007557  0.45777677
   0.52872552  0.57826017  0.43593158
   0.28542749  0.39613848  0.58910457
   0.47144870  0.41399411  0.59159618
   0.42350071  0.33060578  0.52969989
   0.27545386  0.56178200  0.58731307
   0.46071413  0.56507232  0.59515801
   0.40706609  0.64243346  0.52651255
   0.40473811  0.42331317  0.40207762
   0.51246640  0.42299622  0.43340275
   0.40263919  0.55933528  0.40464561
   0.59368050  0.60431076  0.40690575
Direct configuration=    11
   0.33644124  0.43824893  0.56422100
   0.33067610  0.52531792  0.56323182
   0.41229797  0.57397553  0.54152714
   0.42299432  0.40054842  0.53887121
   0.44926043  0.44196425  0.45485311
   0.44664495  0.54013290  0.45809092
   0.52920903  0.57828267  0.43594961
   0.28567890  0.39591194  0.59013959
   0.47069242  0.41310057  0.59220583
   0.42339447  0.33044313  0.52838591
   0.27560109  0.56188022  0.58839996
   0.45975656  0.56553360  0.59583326
   0.40705852  0.64255067  0.52531608
   0.40521738  0.42407187  0.40201864
   0.51336655  0.42355905  0.43377097
   0.40299017  0.55922550  0.40485274
   0.59372339  0.60367753  0.40582070
Direct configuration=    12
   0.33606443  0.43813931  0.56436280
   0.33020446  0.52530663  0.56347492
   0.41175431  0.57441650  0.54150077
   0.42263603  0.40014890  0.53863014
   0.45012756  0.44193877  0.45492909
   0.44716475  0.54027383  0.45837987
   0.52974476  0.57820495  0.43578324
   0.28590728  0.39568758  0.59135977
   0.46968068  0.41198438  0.59277583
   0.42311416  0.33015136  0.52685590
   0.27564608  0.56193875  0.58970727
   0.45850017  0.56618462  0.59648143
   0.40677306  0.64290115  0.52423474
   0.40578831  0.42478979  0.40197074
   0.51475005  0.42402195  0.43418375
   0.40337608  0.55926051  0.40514572
   0.59414522  0.60308081  0.40442830
Direct configuration=    13
   0.33594306  0.43809065  0.56451128
   0.33003146  0.52532650  0.56370514
   0.41145519  0.57470123  0.54149711
   0.42242962  0.39989746  0.53850019
   0.45064708  0.44193305  0.45489719
   0.44747295  0.54032995  0.45844325
   0.53022881  0.57823467  0.43549589
   0.28598732  0.39561364  0.59197351
   0.46910756  0.41136278  0.59295552
   0.42285875  0.32995735  0.52612090
   0.27559563  0.56192063  0.59038754
   0.45779839  0.56660727  0.59671035
   0.40644472  0.64317553  0.52390561
   0.40614441  0.42503206  0.40196623
   0.51553642  0.42413726  0.43441378
   0.40358127  0.55935967  0.40532378
   0.59431292  0.60275277  0.40377642
Direct configuration=    14
   0.33577057  0.43803510  0.56466266
   0.32979645  0.52533499  0.56394937
   0.41109326  0.57502462  0.54148813
   0.42217807  0.39961061  0.53834115
   0.45125745  0.44194468  0.45488112
   0.44786480  0.54040895  0.45853039
   0.53060298  0.57819598  0.43527696
   0.28610493  0.39551758  0.59273313
   0.46842861  0.41060175  0.59321609
   0.42256791  0.32972797  0.52520243
   0.27556443  0.56190475  0.59122579
   0.45696246  0.56711273  0.59703439
   0.40608509  0.64348395  0.52343539
   0.40658253  0.42536330  0.40195002
   0.51646266  0.42431465  0.43470272
   0.40383850  0.55945515  0.40553075
   0.59465956  0.60239903  0.40289165
Direct configuration=    15
   0.33575932  0.43803133  0.56488044
   0.32974787  0.52536280  0.56426545
   0.41086713  0.57529330  0.54145220
   0.42200706  0.39939344  0.53820702
   0.45169381  0.44192234  0.45479185
   0.44815544  0.54048015  0.45846247
   0.53090545  0.57819243  0.43493319
   0.28612537  0.39554724  0.59310841
   0.46800890  0.41010977  0.59319660
   0.42222067  0.32952686  0.52479272
   0.27545135  0.56180300  0.59168298
   0.45645906  0.56753280  0.59707329
   0.40558584  0.64380847  0.52355413
   0.40691877  0.42532667  0.40195094
   0.51709379  0.42420096  0.43488887
   0.40397978  0.55964502  0.40566488
   0.59498527  0.60226117  0.40242356
Direct configuration=    16
   0.33573232  0.43802960  0.56509303
   0.32968240  0.52538200  0.56457946
   0.41061997  0.57556853  0.54141057
   0.42181844  0.39917274  0.53805709
   0.45215377  0.44190104  0.45471697
   0.44845212  0.54056175  0.45841067
   0.53126957  0.57821043  0.43456617
   0.28615981  0.39557428  0.59353027
   0.46756939  0.40956393  0.59320858
   0.42184885  0.32931307  0.52432586
   0.27534820  0.56169596  0.59219397
   0.45592763  0.56799067  0.59715201
   0.40506177  0.64414549  0.52363465
   0.40729493  0.42531081  0.40193781
   0.51775970  0.42410198  0.43510306
   0.40413812  0.55983486  0.40579778
   0.59528964  0.60208282  0.40192071
Direct configuration=    17
   0.33578439  0.43806147  0.56540461
   0.32970032  0.52541235  0.56502880
   0.41036830  0.57589846  0.54133717
   0.42160866  0.39892809  0.53786580
   0.45265669  0.44184769  0.45458830
   0.44878944  0.54068541  0.45825239
   0.53161299  0.57822392  0.43405356
   0.28615539  0.39568934  0.59387185
   0.46715945  0.40897432  0.59307700
   0.42129858  0.32904270  0.52399609
   0.27517414  0.56149386  0.59266194
   0.45543878  0.56857055  0.59711336
   0.40425942  0.64460652  0.52408660
   0.40775921  0.42506716  0.40190893
   0.51846395  0.42379569  0.43534563
   0.40428307  0.56014346  0.40591213
   0.59577669  0.60200118  0.40144626
Direct configuration=    18
   0.33587060  0.43810592  0.56565411
   0.32977183  0.52543595  0.56538808
   0.41020986  0.57614158  0.54127424
   0.42146096  0.39876668  0.53771850
   0.45298524  0.44178762  0.45448275
   0.44899861  0.54079810  0.45808618
   0.53191820  0.57828035  0.43358417
   0.28612830  0.39582904  0.59402808
   0.46695661  0.40855732  0.59290524
   0.42080284  0.32883706  0.52388869
   0.27502659  0.56129108  0.59292915
   0.45519833  0.56903898  0.59702430
   0.40353638  0.64497706  0.52463732
   0.40813695  0.42474236  0.40185506
   0.51890942  0.42345250  0.43553691
   0.40436325  0.56041881  0.40594447
   0.59612269  0.60198323  0.40121836
Direct configuration=    19
   0.33596458  0.43815314  0.56590438
   0.32985333  0.52546063  0.56574941
   0.41005641  0.57639087  0.54121958
   0.42131397  0.39860513  0.53757875
   0.45330587  0.44172397  0.45437153
   0.44921164  0.54091925  0.45790269
   0.53213608  0.57830877  0.43314684
   0.28609536  0.39597677  0.59416907
   0.46677665  0.40813932  0.59272175
   0.42028576  0.32863140  0.52380257
   0.27487738  0.56107916  0.59318504
   0.45498467  0.56951814  0.59692564
   0.40278553  0.64535184  0.52522422
   0.40852367  0.42439127  0.40178905
   0.51934345  0.42308944  0.43573519
   0.40443780  0.56070193  0.40596223
   0.59655072  0.60200404  0.40097100
Direct configuration=    20
   0.33611224  0.43822337  0.56618818
   0.33000006  0.52549019  0.56616079
   0.40991779  0.57667366  0.54116925
   0.42116211  0.39844365  0.53743592
   0.45360639  0.44163265  0.45423803
   0.44940227  0.54107512  0.45764701
   0.53239306  0.57837650  0.43260276
   0.28603325  0.39618961  0.59422943
   0.46669590  0.40769140  0.59245208
   0.41961992  0.32840678  0.52383896
   0.27470258  0.56079499  0.59339052
   0.45488981  0.57008952  0.59676223
   0.40182776  0.64578201  0.52607248
   0.40898911  0.42386346  0.40166786
   0.51973838  0.42258194  0.43597673
   0.40449027  0.56105361  0.40591521
   0.59702801  0.60207803  0.40081452
Direct configuration=    21
   0.33624345  0.43828571  0.56644513
   0.33013166  0.52551780  0.56653375
   0.40978920  0.57693918  0.54113122
   0.42102218  0.39829234  0.53731167
   0.45388110  0.44154808  0.45411555
   0.44957263  0.54121722  0.45741432
   0.53265283  0.57844771  0.43209935
   0.28597633  0.39638142  0.59429113
   0.46662603  0.40727139  0.59221119
   0.41900417  0.32820298  0.52386130
   0.27454694  0.56053647  0.59358656
   0.45480702  0.57061902  0.59661756
   0.40094822  0.64617117  0.52683622
   0.40942173  0.42338557  0.40154888
   0.52010338  0.42212488  0.43620671
   0.40453868  0.56137215  0.40586607
   0.59744381  0.60213477  0.40067765
Direct configuration=    22
   0.33643126  0.43837080  0.56673004
   0.33033675  0.52555285  0.56694873
   0.40968310  0.57724896  0.54111710
   0.42088252  0.39814144  0.53720299
   0.45411515  0.44143084  0.45396672
   0.44971338  0.54139876  0.45709444
   0.53287322  0.57853503  0.43153204
   0.28588329  0.39664132  0.59425302
   0.46669495  0.40682055  0.59187920
   0.41822103  0.32798979  0.52402375
   0.27437382  0.56020263  0.59371726
   0.45488954  0.57124862  0.59640063
   0.39984748  0.64660063  0.52787510
   0.40994044  0.42271395  0.40135240
   0.52040523  0.42152031  0.43649478
   0.40455630  0.56175593  0.40572664
   0.59796232  0.60227681  0.40063166
Direct configuration=    23
   0.33661673  0.43845330  0.56696209
   0.33055401  0.52558538  0.56728627
   0.40962828  0.57751923  0.54113788
   0.42078283  0.39803007  0.53714792
   0.45423949  0.44131150  0.45383412
   0.44977060  0.54156273  0.45678626
   0.53307370  0.57864235  0.43103720
   0.28577930  0.39688991  0.59413095
   0.46688828  0.40645662  0.59155672
   0.41749061  0.32783224  0.52426494
   0.27423936  0.55989489  0.59375265
   0.45512049  0.57180489  0.59617389
   0.39884571  0.64693807  0.52886814
   0.41040130  0.42205091  0.40112561
   0.52056292  0.42095815  0.43677062
   0.40453776  0.56208711  0.40553095
   0.59835444  0.60243291  0.40072584
Direct configuration=    24
   0.33663171  0.43845842  0.56694089
   0.33058348  0.52558659  0.56725416
   0.40966833  0.57750445  0.54116581
   0.42080812  0.39805424  0.53718661
   0.45416029  0.44130264  0.45383401
   0.44971792  0.54156433  0.45676524
   0.53297829  0.57863100  0.43109766
   0.28576093  0.39690198  0.59404763
   0.46700546  0.40650215  0.59153393
   0.41747622  0.32786347  0.52435397
   0.27425837  0.55989166  0.59367304
   0.45526073  0.57178793  0.59614237
   0.39884635  0.64689380  0.52891595
   0.41038755  0.42200133  0.40108530
   0.52045820  0.42094501  0.43678069
   0.40450584  0.56207195  0.40547117
   0.59836312  0.60248913  0.40081511
Direct configuration=    25
   0.33667561  0.43847809  0.56697203
   0.33064348  0.52559233  0.56729785
   0.40968595  0.57753955  0.54118515
   0.42080586  0.39805040  0.53720117
   0.45413127  0.44127480  0.45380979
   0.44968632  0.54159191  0.45669898
   0.53300794  0.57866413  0.43102304
   0.28572793  0.39695519  0.59396878
   0.46711850  0.40646464  0.59145765
   0.41733129  0.32785365  0.52445660
   0.27424520  0.55983457  0.59362649
   0.45539676  0.57187955  0.59607643
   0.39866239  0.64692929  0.52912839
   0.41046208  0.42184666  0.40101715
   0.52042095  0.42083424  0.43683941
   0.40448006  0.56212182  0.40539682
   0.59839360  0.60253928  0.40091600
Direct configuration=    26
   0.33672635  0.43849936  0.56700241
   0.33071603  0.52559968  0.56733842
   0.40971847  0.57756886  0.54121184
   0.42081163  0.39805289  0.53722882
   0.45407750  0.44124405  0.45378238
   0.44964186  0.54162193  0.45662087
   0.53296707  0.57867783  0.43098263
   0.28568647  0.39701405  0.59385881
   0.46727235  0.40644041  0.59136858
   0.41717693  0.32785173  0.52459062
   0.27423661  0.55977691  0.59355209
   0.45558258  0.57196942  0.59599334
   0.39847322  0.64695470  0.52936221
   0.41053313  0.42167068  0.40093462
   0.52035421  0.42071721  0.43690400
   0.40444289  0.56216857  0.40530283
   0.59845778  0.60262185  0.40103704
Direct configuration=    27
   0.33747608  0.43881931  0.56752850
   0.33178148  0.52570601  0.56803933
   0.41014957  0.57804221  0.54154645
   0.42085542  0.39804861  0.53757281
   0.45339793  0.44078563  0.45336392
   0.44900219  0.54205100  0.45549022
   0.53281523  0.57901238  0.43013874
   0.28507130  0.39788511  0.59231555
   0.46941957  0.40599047  0.59003546
   0.41484963  0.32776387  0.52647302
   0.27407251  0.55892493  0.59254997
   0.45818775  0.57336849  0.59474963
   0.39560611  0.64740928  0.53282120
   0.41163022  0.41908045  0.39975054
   0.51954154  0.41898136  0.43788336
   0.40392125  0.56289741  0.40398311
   0.59912250  0.60368396  0.40287795
Direct configuration=    28
   0.33739018  0.43878222  0.56750899
   0.33167109  0.52569545  0.56800072
   0.41011504  0.57801084  0.54148551
   0.42085748  0.39803281  0.53752799
   0.45347055  0.44082246  0.45339818
   0.44906512  0.54199216  0.45562080
   0.53273946  0.57893712  0.43028454
   0.28512518  0.39778859  0.59245866
   0.46918680  0.40603795  0.59015170
   0.41510810  0.32777821  0.52626474
   0.27409919  0.55904470  0.59264173
   0.45792194  0.57321442  0.59483015
   0.39595336  0.64732508  0.53241164
   0.41149851  0.41937406  0.39989352
   0.51965263  0.41920968  0.43779279
   0.40396335  0.56280138  0.40413851
   0.59907957  0.60360330  0.40270434
Direct configuration=    29
   0.33745435  0.43880944  0.56757068
   0.33176624  0.52570546  0.56807775
   0.41015469  0.57804972  0.54150209
   0.42086110  0.39802787  0.53755186
   0.45341459  0.44077855  0.45336206
   0.44899984  0.54201832  0.45553210
   0.53274340  0.57896934  0.43021645
   0.28506495  0.39785883  0.59231915
   0.46936705  0.40599812  0.59002664
   0.41491566  0.32776991  0.52641775
   0.27408901  0.55898887  0.59255118
   0.45814956  0.57333131  0.59469885
   0.39573080  0.64735255  0.53267988
   0.41158334  0.41916359  0.39979984
   0.51959843  0.41908625  0.43788323
   0.40391172  0.56285293  0.40403485
   0.59909526  0.60368940  0.40289486
Direct configuration=    30
   0.33748653  0.43882080  0.56762619
   0.33181849  0.52571350  0.56814220
   0.41017675  0.57806290  0.54149441
   0.42086175  0.39801822  0.53755663
   0.45339124  0.44075051  0.45334413
   0.44895854  0.54201549  0.45549811
   0.53270827  0.57896763  0.43021720
   0.28502341  0.39788608  0.59223829
   0.46945026  0.40597709  0.58994815
   0.41483391  0.32776425  0.52647932
   0.27409103  0.55899046  0.59249870
   0.45826978  0.57338355  0.59459424
   0.39566124  0.64734838  0.53276327
   0.41160949  0.41907956  0.39976650
   0.51959557  0.41906774  0.43793745
   0.40387491  0.56285962  0.40399964
   0.59909030  0.60374471  0.40301763
Direct configuration=    31
   0.33756103  0.43884846  0.56775179
   0.33194019  0.52573075  0.56828977
   0.41022321  0.57808319  0.54147908
   0.42085910  0.39799620  0.53756866
   0.45333736  0.44068851  0.45330927
   0.44885831  0.54200348  0.45542111
   0.53264046  0.57897125  0.43022039
   0.28492575  0.39794684  0.59205273
   0.46964109  0.40592388  0.58976793
   0.41464675  0.32774653  0.52661338
   0.27409826  0.55900041  0.59238015
   0.45855202  0.57350366  0.59435068
   0.39550838  0.64734199  0.53293752
   0.41166836  0.41888905  0.39968911
   0.51959313  0.41903449  0.43806395
   0.40378475  0.56286900  0.40391996
   0.59906744  0.60387285  0.40331447
Direct configuration=    32
   0.33782705  0.43894707  0.56819246
   0.33237577  0.52579487  0.56881193
   0.41038649  0.57815497  0.54143046
   0.42084677  0.39791892  0.53761519
   0.45314178  0.44047415  0.45318483
   0.44850533  0.54196238  0.45513467
   0.53233987  0.57896504  0.43024672
   0.28458102  0.39816963  0.59139192
   0.47033125  0.40572767  0.58912893
   0.41396891  0.32768033  0.52709393
   0.27412779  0.55903061  0.59196079
   0.45957235  0.57393895  0.59349033
   0.39494996  0.64732689  0.53356680
   0.41189100  0.41819862  0.39940662
   0.51957636  0.41890815  0.43851881
   0.40346081  0.56290349  0.40362810
   0.59903869  0.60434900  0.40435736
Direct configuration=    33
   0.33783810  0.43895002  0.56822059
   0.33240468  0.52580346  0.56885258
   0.41039343  0.57815103  0.54143005
   0.42083824  0.39790823  0.53762085
   0.45312845  0.44046430  0.45318490
   0.44846612  0.54194404  0.45511462
   0.53233943  0.57897971  0.43024976
   0.28456069  0.39818945  0.59134834
   0.47038022  0.40569394  0.58908656
   0.41391910  0.32766838  0.52710494
   0.27414738  0.55904872  0.59194146
   0.45966400  0.57397600  0.59342180
   0.39492983  0.64732403  0.53356129
   0.41191934  0.41815687  0.39938732
   0.51958121  0.41892864  0.43856295
   0.40342279  0.56288729  0.40360937
   0.59899271  0.60437670  0.40447108
Direct configuration=    34
   0.33783603  0.43895051  0.56821972
   0.33240486  0.52580335  0.56885491
   0.41039294  0.57814900  0.54143155
   0.42083554  0.39790509  0.53762241
   0.45312860  0.44046592  0.45318728
   0.44846390  0.54193966  0.45511281
   0.53231207  0.57897232  0.43026377
   0.28456100  0.39819069  0.59134865
   0.47038064  0.40568578  0.58908667
   0.41391805  0.32766571  0.52709641
   0.27415396  0.55905596  0.59194521
   0.45967291  0.57397860  0.59341673
   0.39493802  0.64732252  0.53354134
   0.41192427  0.41815861  0.39938735
   0.51958375  0.41894043  0.43856812
   0.40341560  0.56287940  0.40360977
   0.59900496  0.60438729  0.40447841
Direct configuration=    35
   0.33784148  0.43895483  0.56823414
   0.33242219  0.52580684  0.56887932
   0.41039871  0.57814715  0.54143116
   0.42082929  0.39789544  0.53762669
   0.45312162  0.44046137  0.45318859
   0.44843878  0.54192616  0.45510059
   0.53228374  0.57897242  0.43027890
   0.28454876  0.39820173  0.59132577
   0.47040683  0.40565929  0.58906377
   0.41389024  0.32765736  0.52709423
   0.27417017  0.55907377  0.59193911
   0.45973064  0.57400108  0.59337347
   0.39493593  0.64731834  0.53351897
   0.41194448  0.41813692  0.39937673
   0.51958944  0.41896284  0.43859722
   0.40338751  0.56286226  0.40360018
   0.59899115  0.60441308  0.40454967
Direct configuration=    36
   0.33789181  0.43898669  0.56835461
   0.33256414  0.52583776  0.56907608
   0.41045247  0.57814292  0.54143031
   0.42078645  0.39782028  0.53765881
   0.45306329  0.44040858  0.45319385
   0.44824788  0.54183363  0.45500730
   0.53209831  0.57898824  0.43037769
   0.28444182  0.39828739  0.59113727
   0.47061176  0.40545683  0.58887657
   0.41366383  0.32759634  0.52709580
   0.27428504  0.55920563  0.59188433
   0.46017887  0.57417737  0.59302383
   0.39490509  0.64728238  0.53337578
   0.41209548  0.41795014  0.39928938
   0.51963011  0.41911839  0.43882456
   0.40315689  0.56273538  0.40351821
   0.59888730  0.60462332  0.40511075
Direct configuration=    37
   0.33792585  0.43900770  0.56843437
   0.33265994  0.52586103  0.56920617
   0.41049150  0.57814120  0.54142673
   0.42075935  0.39776972  0.53767854
   0.45302559  0.44037283  0.45319659
   0.44811979  0.54177357  0.45494457
   0.53197295  0.57899841  0.43044225
   0.28437024  0.39834364  0.59101384
   0.47074385  0.40532092  0.58875478
   0.41351538  0.32755634  0.52709520
   0.27436177  0.55929484  0.59185103
   0.46047396  0.57429320  0.59279153
   0.39488904  0.64725827  0.53327676
   0.41219529  0.41782515  0.39923135
   0.51965904  0.41922188  0.43897480
   0.40300124  0.56264797  0.40346558
   0.59881585  0.60476488  0.40548950
Direct configuration=    38
   0.33790525  0.43899407  0.56838108
   0.33259917  0.52585071  0.56911690
   0.41047337  0.57814620  0.54142250
   0.42078175  0.39780372  0.53766151
   0.45305347  0.44039393  0.45319085
   0.44820776  0.54181985  0.45498378
   0.53204050  0.57898523  0.43039834
   0.28441689  0.39830448  0.59109922
   0.47064608  0.40541310  0.58884158
   0.41361956  0.32758557  0.52709712
   0.27430816  0.55923477  0.59187784
   0.46026605  0.57421126  0.59294850
   0.39490551  0.64727517  0.53334559
   0.41212453  0.41790467  0.39926986
   0.51964236  0.41914587  0.43886926
   0.40310246  0.56270362  0.40350414
   0.59887452  0.60467915  0.40524015
Direct configuration=    39
   0.33793397  0.43901225  0.56844476
   0.33267722  0.52587133  0.56921847
   0.41050810  0.57814724  0.54141552
   0.42076271  0.39776494  0.53767484
   0.45302507  0.44036295  0.45319004
   0.44810779  0.54177519  0.45493234
   0.53194219  0.57899361  0.43044408
   0.28435962  0.39834862  0.59100215
   0.47074602  0.40530790  0.58874774
   0.41350430  0.32755555  0.52709992
   0.27436667  0.55930335  0.59185271
   0.46049320  0.57430030  0.59276603
   0.39489375  0.64725751  0.53327402
   0.41220059  0.41780175  0.39922324
   0.51966636  0.41922061  0.43898425
   0.40297817  0.56263481  0.40346339
   0.59881746  0.60479370  0.40554496
Direct configuration=    40
   0.33797208  0.43903644  0.56852576
   0.33277760  0.52590033  0.56934439
   0.41055671  0.57815236  0.54140224
   0.42074257  0.39771801  0.53768822
   0.45299222  0.44032181  0.45318239
   0.44798616  0.54172396  0.45486361
   0.53181116  0.57900169  0.43049592
   0.28428717  0.39840426  0.59088051
   0.47086229  0.40517992  0.58863531
   0.41336440  0.32752009  0.52710968
   0.27443768  0.55938611  0.59182356
   0.46076793  0.57440613  0.59253917
   0.39488278  0.64723886  0.53319500
   0.41228973  0.41766501  0.39916433
   0.51969728  0.41930177  0.43912119
   0.40281732  0.56254746  0.40341499
   0.59875774  0.60494763  0.40592980
Direct configuration=    41
   0.33795262  0.43902479  0.56848146
   0.33272430  0.52588668  0.56927366
   0.41053316  0.57815160  0.54140561
   0.42075566  0.39774531  0.53767856
   0.45301207  0.44034221  0.45318288
   0.44805376  0.54175365  0.45489896
   0.53188948  0.57900025  0.43045946
   0.28432708  0.39837395  0.59094812
   0.47079254  0.40525259  0.58870086
   0.41344445  0.32754094  0.52710745
   0.27439752  0.55933879  0.59184158
   0.46061031  0.57434441  0.59266562
   0.39489169  0.64725143  0.53324428
   0.41223742  0.41773562  0.39919634
   0.51968140  0.41924956  0.43904112
   0.40290283  0.56259478  0.40344288
   0.59878573  0.60486515  0.40572652
Direct configuration=    42
   0.33797239  0.43903819  0.56852153
   0.33277516  0.52590251  0.56933533
   0.41055848  0.57815466  0.54139700
   0.42074598  0.39772325  0.53768448
   0.45299662  0.44032018  0.45317680
   0.44799402  0.54172739  0.45486218
   0.53182316  0.57900441  0.43048200
   0.28429192  0.39840259  0.59088774
   0.47084765  0.40519055  0.58864694
   0.41337663  0.32752383  0.52711418
   0.27443301  0.55937889  0.59182796
   0.46074403  0.57439505  0.59255365
   0.39488811  0.64724403  0.53320833
   0.41228035  0.41766476  0.39916682
   0.51969728  0.41928553  0.43910610
   0.40282088  0.56255105  0.40341871
   0.59875603  0.60494497  0.40592419
Direct configuration=    43
   0.33801540  0.43906723  0.56860768
   0.33288442  0.52593645  0.56946823
   0.41061234  0.57816248  0.54137970
   0.42072567  0.39767652  0.53769735
   0.45296394  0.44027232  0.45316008
   0.44786573  0.54167098  0.45477990
   0.53168854  0.57901766  0.43052447
   0.28421681  0.39846590  0.59075593
   0.47096369  0.40506048  0.58853271
   0.41323277  0.32748764  0.52713335
   0.27450933  0.55946362  0.59179843
   0.46102989  0.57450054  0.59231297
   0.39488252  0.64723072  0.53313746
   0.41236930  0.41750795  0.39910358
   0.51972986  0.41935629  0.43924140
   0.40264082  0.56245642  0.40336736
   0.59869100  0.60511893  0.40635229
Direct configuration=    44
   0.33800588  0.43906205  0.56858504
   0.33285779  0.52593011  0.56943247
   0.41060032  0.57816177  0.54138157
   0.42073193  0.39769074  0.53769313
   0.45297378  0.44028171  0.45315932
   0.44790116  0.54168492  0.45479502
   0.53171305  0.57901154  0.43051017
   0.28423749  0.39845163  0.59078918
   0.47092880  0.40509834  0.58856576
   0.41327356  0.32749808  0.52713363
   0.27448962  0.55943973  0.59180717
   0.46095125  0.57446852  0.59237625
   0.39488796  0.64723788  0.53316372
   0.41234253  0.41754196  0.39911958
   0.51972151  0.41932844  0.43919957
   0.40268277  0.56248006  0.40338053
   0.59871692  0.60508457  0.40624983
Direct configuration=    45
   0.33801891  0.43907170  0.56860903
   0.33288962  0.52594099  0.56946927