       N       E                     dE             d eps       ncg     rms          rms(c)
DAV:   1     0.281992433387E+03    0.28199E+03   -0.84542E+03    80   0.662E+02
DAV:   2     0.667273407241E+02   -0.21527E+03   -0.19999E+03   104   0.107E+02
DAV:   3    -0.874275250546E+02   -0.15415E+03   -0.15332E+03    88   0.875E+01
DAV:   4    -0.111864461815E+03   -0.24437E+02   -0.24375E+02    80   0.513E+01
DAV:   5    -0.112557608880E+03   -0.69315E+00   -0.69204E+00    96   0.112E+01    0.165E+01
RMM:   6    -0.103308692845E+03    0.92489E+01   -0.13310E+01    90   0.136E+01    0.853E+00
RMM:   7    -0.101513084131E+03    0.17956E+01   -0.10703E+01    90   0.117E+01    0.424E+00
RMM:   8    -0.101194541790E+03    0.31854E+00   -0.15217E+00    90   0.490E+00    0.125E+00
RMM:   9    -0.101051769627E+03    0.14277E+00   -0.27711E-01    90   0.246E+00    0.493E-01
RMM:  10    -0.101069046920E+03   -0.17277E-01   -0.34453E-01    91   0.197E+00    0.728E-01
RMM:  11    -0.101053663762E+03    0.15383E-01   -0.12905E-01    89   0.176E+00    0.301E-01
RMM:  12    -0.101052723513E+03    0.94025E-03   -0.16939E-02    91   0.667E-01    0.109E-01
RMM:  13    -0.101057174382E+03   -0.44509E-02   -0.22379E-02    90   0.481E-01    0.133E-01
RMM:  14    -0.101067083175E+03   -0.99088E-02   -0.50091E-03    90   0.315E-01    0.459E-02
RMM:  15    -0.101070835460E+03   -0.37523E-02   -0.20762E-03    92   0.159E-01    0.243E-02
RMM:  16    -0.101076930854E+03   -0.60954E-02   -0.13931E-03    87   0.118E-01    0.149E-02
RMM:  17    -0.101078132158E+03   -0.12013E-02   -0.48040E-04    83   0.649E-02    0.185E-02
RMM:  18    -0.101078993975E+03   -0.86182E-03   -0.27459E-04    77   0.519E-02    0.137E-02
RMM:  19    -0.101079805659E+03   -0.81168E-03   -0.10940E-04    73   0.330E-02    0.836E-03
RMM:  20    -0.101080005908E+03   -0.20025E-03   -0.31150E-05    69   0.171E-02    0.581E-03
RMM:  21    -0.101080156152E+03   -0.15024E-03   -0.25355E-05    69   0.173E-02    0.241E-03
RMM:  22    -0.101080188787E+03   -0.32635E-04   -0.52308E-06    59   0.107E-02
   1 F= -.10125146E+03 E0= -.10125146E+03  d E =-.609849E-14
