<?xml version="1.0" encoding="ISO-8859-1"?>
<modeling>
 <generator>
  <i name="program" type="string">vasp </i>
  <i name="version" type="string">6.3.2  </i>
  <i name="subversion" type="string">27Jun22 (build Dec 05 2023 10:50:29) complex                          parallel </i>
  <i name="platform" type="string">LinuxIFC </i>
  <i name="date" type="string">2023 12 07 </i>
  <i name="time" type="string">15:04:30 </i>
 </generator>
 <incar>
  <i type="string" name="ALGO">Fast</i>
  <i type="int" name="ISPIN">     1</i>
  <i name="ENCUT">    600.00000000</i>
  <i type="int" name="ISMEAR">     0</i>
  <i name="SIGMA">      0.05000000</i>
  <i type="logical" name="LWAVE"> F  </i>
  <i type="logical" name="LCHARG"> F  </i>
  <i type="string" name="GGA">PE</i>
  <i type="int" name="IVDW">    11</i>
 </incar>
 <primitive_cell>
  <structure name="primitive_cell" >
   <crystal>
    <varray name="basis" >
     <v>      22.91930000       0.00000000       0.00000000 </v>
     <v>       0.00000000      17.41290000       0.00000000 </v>
     <v>       0.00000000       0.00000000      16.83290000 </v>
    </varray>
    <i name="volume">   6717.86695635 </i>
    <varray name="rec_basis" >
     <v>       0.04363135       0.00000000       0.00000000 </v>
     <v>       0.00000000       0.05742869       0.00000000 </v>
     <v>       0.00000000       0.00000000       0.05940747 </v>
    </varray>
   </crystal>
   <varray name="positions" >
    <v>       0.62982316       0.48245928       0.47128855 </v>
    <v>       0.47501881       0.52367393       0.50313626 </v>
    <v>       0.53275990       0.48527392       0.53373847 </v>
    <v>       0.42361949       0.46999437       0.49936223 </v>
    <v>       0.58815691       0.52941746       0.51615005 </v>
    <v>       0.36500570       0.51051287       0.48013329 </v>
    <v>       0.45987394       0.57405165       0.54482932 </v>
    <v>       0.48329440       0.54732382       0.44371745 </v>
    <v>       0.53791587       0.42514436       0.51473904 </v>
    <v>       0.52865449       0.48207600       0.60147296 </v>
    <v>       0.42871032       0.43081878       0.44809860 </v>
    <v>       0.41239305       0.43528583       0.55475732 </v>
    <v>       0.61233882       0.55011713       0.57113437 </v>
    <v>       0.57954183       0.58149550       0.48284076 </v>
    <v>       0.36998985       0.55818822       0.43978537 </v>
    <v>       0.33250699       0.46771793       0.45699358 </v>
    <v>       0.34725991       0.52970833       0.53746891 </v>
    <v>       0.66008811       0.45776881       0.50736339 </v>
    <v>       0.65433146       0.52495443       0.44431577 </v>
   </varray>
  </structure>
  <varray name="primitive_index" >
   <v type="int" >        1 </v>
   <v type="int" >        2 </v>
   <v type="int" >        3 </v>
   <v type="int" >        4 </v>
   <v type="int" >        5 </v>
   <v type="int" >        6 </v>
   <v type="int" >        7 </v>
   <v type="int" >        8 </v>
   <v type="int" >        9 </v>
   <v type="int" >       10 </v>
   <v type="int" >       11 </v>
   <v type="int" >       12 </v>
   <v type="int" >       13 </v>
   <v type="int" >       14 </v>
   <v type="int" >       15 </v>
   <v type="int" >       16 </v>
   <v type="int" >       17 </v>
   <v type="int" >       18 </v>
   <v type="int" >       19 </v>
  </varray>
 </primitive_cell>
 <kpoints>
  <generation param="Gamma">
   <v type="int" name="divisions">       1        1        1 </v>
   <v name="usershift">      0.00000000       0.00000000       0.00000000 </v>
   <v name="genvec1">      1.00000000       0.00000000       0.00000000 </v>
   <v name="genvec2">      0.00000000       1.00000000       0.00000000 </v>
   <v name="genvec3">      0.00000000       0.00000000       1.00000000 </v>
   <v name="shift">      0.00000000       0.00000000       0.00000000 </v>
  </generation>
  <varray name="kpointlist" >
   <v>       0.00000000       0.00000000       0.00000000 </v>
  </varray>
  <varray name="weights" >
   <v>       1.00000000 </v>
  </varray>
 </kpoints>
 <parameters>
  <separator name="general" >
   <i type="string" name="SYSTEM">unknown system</i>
   <i type="logical" name="LCOMPAT"> F  </i>
  </separator>
  <separator name="electronic" >
   <i type="string" name="PREC">normal</i>
   <i name="ENMAX">    600.00000000</i>
   <i name="ENAUG">    644.87300000</i>
   <i name="EDIFF">      0.00010000</i>
   <i type="int" name="IALGO">    68</i>
   <i type="int" name="IWAVPR">    10</i>
   <i type="int" name="NBANDS">    32</i>
   <i type="int" name="NBANDSLOW">    -1</i>
   <i type="int" name="NBANDSHIGH">    -1</i>
   <i name="NELECT">     38.00000000</i>
   <i type="int" name="TURBO">     0</i>
   <i type="int" name="IRESTART">     0</i>
   <i type="int" name="NREBOOT">     0</i>
   <i type="int" name="NMIN">     0</i>
   <i name="EREF">      0.00000000</i>
   <separator name="electronic smearing" >
    <i type="int" name="ISMEAR">     0</i>
    <i name="SIGMA">      0.05000000</i>
    <i name="KSPACING">      0.50000000</i>
    <i type="logical" name="KGAMMA"> T  </i>
    <i type="logical" name="KBLOWUP"> T  </i>
   </separator>
   <separator name="electronic projectors" >
    <i type="logical" name="LREAL"> F  </i>
    <v name="ROPT">      0.00000000      0.00000000      0.00000000</v>
    <i type="int" name="LMAXPAW">  -100</i>
    <i type="int" name="LMAXMIX">     2</i>
    <i type="logical" name="NLSPLINE"> F  </i>
   </separator>
   <separator name="electronic startup" >
    <i type="int" name="ISTART">     0</i>
    <i type="int" name="ICHARG">     2</i>
    <i type="int" name="INIWAV">     1</i>
   </separator>
   <separator name="electronic spin" >
    <i type="int" name="ISPIN">     1</i>
    <i type="logical" name="LNONCOLLINEAR"> F  </i>
    <v name="MAGMOM">      1.00000000      1.00000000      1.00000000      1.00000000      1.00000000      1.00000000      1.00000000      1.00000000      1.00000000      1.00000000      1.00000000      1.00000000      1.00000000      1.00000000      1.00000000      1.00000000      1.00000000      1.00000000      1.00000000</v>
    <i name="NUPDOWN">     -1.00000000</i>
    <i type="logical" name="LSORBIT"> F  </i>
    <v name="SAXIS">      0.00000000      0.00000000      1.00000000</v>
    <i type="logical" name="LSPIRAL"> F  </i>
    <v name="QSPIRAL">      0.00000000      0.00000000      0.00000000</v>
    <i type="logical" name="LZEROZ"> F  </i>
   </separator>
   <separator name="electronic exchange-correlation" >
    <i type="logical" name="LASPH"> F  </i>
    <i type="logical" name="LMETAGGA"> F  </i>
   </separator>
   <separator name="electronic convergence" >
    <i type="int" name="NELM">    60</i>
    <i type="int" name="NELMDL">     0</i>
    <i type="int" name="NELMIN">     2</i>
    <i name="ENINI">    600.00000000</i>
    <separator name="electronic convergence detail" >
     <i type="logical" name="LDIAG"> T  </i>
     <i type="logical" name="LSUBROT"> F  </i>
     <i name="WEIMIN">      0.00000000</i>
     <i name="EBREAK">      0.00000078</i>
     <i name="DEPER">      0.30000000</i>
     <i type="int" name="NRMM">     4</i>
     <i name="TIME">      0.40000000</i>
    </separator>
   </separator>
   <separator name="electronic mixer" >
    <i name="AMIX">      0.40000000</i>
    <i name="BMIX">      1.00000000</i>
    <i name="AMIN">      0.10000000</i>
    <i name="AMIX_MAG">      1.60000000</i>
    <i name="BMIX_MAG">      1.00000000</i>
    <separator name="electronic mixer details" >
     <i type="int" name="IMIX">     4</i>
     <i type="logical" name="MIXFIRST"> F  </i>
     <i type="int" name="MAXMIX">   -45</i>
     <i name="WC">    100.00000000</i>
     <i type="int" name="INIMIX">     1</i>
     <i type="int" name="MIXPRE">     1</i>
     <i type="int" name="MREMOVE">     5</i>
    </separator>
   </separator>
   <separator name="electronic dipolcorrection" >
    <i type="logical" name="LDIPOL"> F  </i>
    <i type="logical" name="LMONO"> F  </i>
    <i type="int" name="IDIPOL">     0</i>
    <i name="EPSILON">      1.00000000</i>
    <v name="DIPOL">   -100.00000000   -100.00000000   -100.00000000</v>
    <i name="EFIELD">      0.00000000</i>
   </separator>
  </separator>
  <separator name="grids" >
   <i type="int" name="NGX">   140</i>
   <i type="int" name="NGY">   108</i>
   <i type="int" name="NGZ">   108</i>
   <i type="int" name="NGXF">   280</i>
   <i type="int" name="NGYF">   216</i>
   <i type="int" name="NGZF">   216</i>
   <i type="logical" name="ADDGRID"> F  </i>
  </separator>
  <separator name="ionic" >
   <i type="int" name="NSW">     0</i>
   <i type="int" name="IBRION">    -1</i>
   <i type="int" name="MDALGO">     0</i>
   <i type="int" name="ISIF">     2</i>
   <i name="PSTRESS">      0.00000000</i>
   <i name="EDIFFG">      0.00100000</i>
   <i type="int" name="NFREE">     0</i>
   <i name="POTIM">      0.50000000</i>
   <i name="SMASS">     -3.00000000</i>
   <i name="SCALEE">      1.00000000</i>
  </separator>
  <separator name="ionic md" >
   <i name="TEBEG">      0.00010000</i>
   <i name="TEEND">      0.00010000</i>
   <i type="int" name="NBLOCK">     1</i>
   <i type="int" name="KBLOCK">     1</i>
   <i type="int" name="NPACO">   256</i>
   <i name="APACO">     10.00000000</i>
  </separator>
  <separator name="symmetry" >
   <i type="int" name="ISYM">     2</i>
   <i name="SYMPREC">      0.00001000</i>
  </separator>
  <separator name="dos" >
   <i type="int" name="LORBIT">     0</i>
   <v name="RWIGS">     -1.00000000     -1.00000000     -1.00000000</v>
   <i type="int" name="NEDOS">   301</i>
   <i name="EMIN">     10.00000000</i>
   <i name="EMAX">    -10.00000000</i>
   <i name="EFERMI">      0.00000000</i>
  </separator>
  <separator name="writing" >
   <i type="int" name="NWRITE">     2</i>
   <i type="logical" name="LWAVE"> F  </i>
   <i type="logical" name="LDOWNSAMPLE"> F  </i>
   <i type="logical" name="LCHARG"> F  </i>
   <i type="logical" name="LPARD"> F  </i>
   <i type="logical" name="LVTOT"> F  </i>
   <i type="logical" name="LVHAR"> F  </i>
   <i type="logical" name="LELF"> F  </i>
   <i type="logical" name="LOPTICS"> F  </i>
   <v name="STM">      0.00000000      0.00000000      0.00000000      0.00000000      0.00000000      0.00000000      0.00000000</v>
  </separator>
  <separator name="performance" >
   <i type="int" name="NPAR">     4</i>
   <i type="int" name="NSIM">     4</i>
   <i type="int" name="NBLK">    -1</i>
   <i type="logical" name="LPLANE"> T  </i>
   <i type="logical" name="LSCALAPACK"> T  </i>
   <i type="logical" name="LSCAAWARE"> F  </i>
   <i type="logical" name="LSCALU"> F  </i>
   <i type="logical" name="LASYNC"> F  </i>
   <i type="logical" name="LORBITALREAL"> F  </i>
  </separator>
  <separator name="miscellaneous" >
   <i type="int" name="IDIOT">     3</i>
   <i type="int" name="PHON_NSTRUCT">    -1</i>
   <i type="logical" name="LMUSIC"> F  </i>
   <v name="POMASS">     14.00100000     12.01100000      1.00000000</v>
   <v name="DARWINR">      0.00000000      0.00000000      0.00000000</v>
   <v name="DARWINV">      1.00000000      1.00000000      1.00000000</v>
   <i type="logical" name="LCORR"> T  </i>
  </separator>
  <i type="logical" name="GGA_COMPAT"> T  </i>
  <i type="logical" name="LBERRY"> F  </i>
  <i type="int" name="ICORELEVEL">     0</i>
  <i type="logical" name="LDAU"> F  </i>
  <i type="int" name="I_CONSTRAINED_M">     0</i>
  <separator name="electronic exchange-correlation" >
   <i type="string" name="GGA">PE</i>
   <i type="int" name="VOSKOWN">     0</i>
   <i type="logical" name="LHFCALC"> F  </i>
   <i type="string" name="PRECFOCK"></i>
   <i type="logical" name="LSYMGRAD"> F  </i>
   <i type="logical" name="LHFONE"> F  </i>
   <i type="logical" name="LRHFCALC"> F  </i>
   <i type="logical" name="LTHOMAS"> F  </i>
   <i type="logical" name="LMODELHF"> F  </i>
   <i type="logical" name="LFOCKACE"> F  </i>
   <i name="ENCUT4O">     -1.00000000</i>
   <i type="int" name="EXXOEP">     0</i>
   <i type="int" name="FOURORBIT">     0</i>
   <i name="AEXX">      0.00000000</i>
   <i name="HFALPHA">      0.00000000</i>
   <i name="MCALPHA">      0.00000000</i>
   <i name="ALDAX">      1.00000000</i>
   <i name="AGGAX">      1.00000000</i>
   <i name="ALDAC">      1.00000000</i>
   <i name="AGGAC">      1.00000000</i>
   <i type="int" name="NKREDX">     1</i>
   <i type="int" name="NKREDY">     1</i>
   <i type="int" name="NKREDZ">     1</i>
   <i type="logical" name="SHIFTRED"> F  </i>
   <i type="logical" name="ODDONLY"> F  </i>
   <i type="logical" name="EVENONLY"> F  </i>
   <i type="int" name="LMAXFOCK">     0</i>
   <i type="int" name="NMAXFOCKAE">     0</i>
   <i type="logical" name="LFOCKAEDFT"> F  </i>
   <i name="HFSCREEN">      0.00000000</i>
   <i name="HFSCREENC">      0.00000000</i>
   <i type="int" name="NBANDSGWLOW">     0</i>
  </separator>
  <separator name="vdW DFT" >
   <i type="logical" name="LUSE_VDW"> F  </i>
   <i name="Zab_VDW">     -0.84910000</i>
   <i name="PARAM1">      0.12340000</i>
   <i name="PARAM2">      1.00000000</i>
   <i name="PARAM3">      0.00000000</i>
  </separator>
  <separator name="model GW" >
   <i type="int" name="MODEL_GW">     0</i>
   <i name="MODEL_EPS0">    212.14316704</i>
   <i name="MODEL_ALPHA">      1.00000000</i>
  </separator>
  <separator name="linear response parameters" >
   <i type="logical" name="LEPSILON"> F  </i>
   <i type="logical" name="LRPA"> F  </i>
   <i type="logical" name="LNABLA"> F  </i>
   <i type="logical" name="LVEL"> F  </i>
   <i name="CSHIFT">      0.10000000</i>
   <i name="OMEGAMAX">     -1.00000000</i>
   <i name="DEG_THRESHOLD">      0.00200000</i>
   <i name="RTIME">     -0.10000000</i>
   <i name="WPLASMAI">      0.00000000</i>
   <v name="DFIELD">      0.00000000      0.00000000      0.00000000</v>
   <v name="WPLASMA">      0.00000000      0.00000000      0.00000000      0.00000000      0.00000000      0.00000000      0.00000000      0.00000000      0.00000000</v>
  </separator>
  <separator name="orbital magnetization" >
   <i type="logical" name="NUCIND"> F  </i>
   <v name="MAGPOS">      0.00000000      0.00000000      0.00000000</v>
   <i type="logical" name="LNICSALL"> T  </i>
   <i type="logical" name="ORBITALMAG"> F  </i>
   <i type="logical" name="LMAGBLOCH"> F  </i>
   <i type="logical" name="LCHIMAG"> F  </i>
   <i type="logical" name="LGAUGE"> T  </i>
   <i type="int" name="MAGATOM">     0</i>
   <v name="MAGDIPOL">      0.00000000      0.00000000      0.00000000</v>
   <v name="AVECCONST">      0.00000000      0.00000000      0.00000000</v>
  </separator>
  <separator name="response functions" >
   <i type="logical" name="LFINITE_TEMPERATURE"> F  </i>
   <i type="logical" name="LADDER"> F  </i>
   <i type="logical" name="LRPAFORCE"> F  </i>
   <i type="logical" name="LFXC"> F  </i>
   <i type="logical" name="LHARTREE"> T  </i>
   <i type="int" name="IBSE">     0</i>
   <v type="int" name="KPOINT">    -1     0     0     0</v>
   <i type="logical" name="LTCTC"> F  </i>
   <i type="logical" name="LTCTE"> F  </i>
   <i type="logical" name="LTETE"> F  </i>
   <i type="logical" name="LTRIPLET"> F  </i>
   <i type="logical" name="LFXCEPS"> F  </i>
   <i type="logical" name="LFXHEG"> F  </i>
   <i type="int" name="NATURALO">     2</i>
   <i type="logical" name="LHOLEGF"> F  </i>
   <i type="logical" name="L2ORDER"> F  </i>
   <i type="logical" name="LDMP1"> F  </i>
   <i type="logical" name="LMP2LT"> F  </i>
   <i type="logical" name="LSMP2LT"> F  </i>
   <i type="logical" name="LGWLF"> F  </i>
   <i name="ENCUTGW">     -2.00000000</i>
   <i name="ENCUTGWSOFT">     -2.00000000</i>
   <i name="ENCUTLF">     -1.00000000</i>
   <i type="logical" name="LESF_SPLINES"> F  </i>
   <i type="int" name="LMAXMP2">    -1</i>
   <i name="SCISSOR">      0.00000000</i>
   <i type="int" name="NOMEGA">     0</i>
   <i type="int" name="NOMEGAR">     0</i>
   <i type="int" name="NBANDSGW">    -1</i>
   <i type="int" name="NBANDSO">    -1</i>
   <i type="int" name="NBANDSV">    -1</i>
   <i type="int" name="NELMGW">     1</i>
   <i type="int" name="NELMHF">     1</i>
   <i type="int" name="DIM">     3</i>
   <i type="int" name="IESPILON">     4</i>
   <i type="int" name="ANTIRES">     0</i>
   <i name="OMEGAMAX">    -30.00000000</i>
   <i name="OMEGAMIN">    -30.00000000</i>
   <i name="OMEGATL">   -200.00000000</i>
   <i type="int" name="OMEGAGRID">     0</i>
   <i name="CSHIFT">     -0.10000000</i>
   <i type="logical" name="LSELFENERGY"> F  </i>
   <i type="logical" name="LSPECTRAL"> F  </i>
   <i type="logical" name="LSPECTRALGW"> F  </i>
   <i type="logical" name="LSINGLES"> F  </i>
   <i type="logical" name="LFERMIGW"> F  </i>
   <i type="logical" name="ODDONLYGW"> F  </i>
   <i type="logical" name="EVENONLYGW"> F  </i>
   <i type="int" name="NKREDLFX">     1</i>
   <i type="int" name="NKREDLFY">     1</i>
   <i type="int" name="NKREDLFZ">     1</i>
   <i type="int" name="MAXMEM">  2800</i>
   <i type="int" name="TELESCOPE">     0</i>
   <i type="int" name="NTAUPAR">    -1</i>
   <i type="int" name="NOMEGAPAR">    -1</i>
   <i name="DAMP_NEWTON">      0.80000001</i>
   <i name="LAMBDA">      1.00000000</i>
  </separator>
  <separator name="External order field" >
   <i name="OFIELD_KAPPA">      0.00000000</i>
   <v name="OFIELD_K">      0.00000000      0.00000000      0.00000000</v>
   <i name="OFIELD_Q6_NEAR">      0.00000000</i>
   <i name="OFIELD_Q6_FAR">      0.00000000</i>
   <i name="OFIELD_A">      0.00000000</i>
  </separator>
  <separator name="optional k-points parameters" >
   <i type="int" name="KPOINTS_OPT_MODE">     1</i>
   <i type="logical" name="LKPOINTS_OPT"> F  </i>
  </separator>
 </parameters>
 <atominfo>
  <atoms>      19 </atoms>
  <types>       3 </types>
  <array name="atoms" >
   <dimension dim="1">ion</dimension>
   <field type="string">element</field>
   <field type="int">atomtype</field>
   <set>
    <rc><c>N </c><c>   1</c></rc>
    <rc><c>C </c><c>   2</c></rc>
    <rc><c>C </c><c>   2</c></rc>
    <rc><c>C </c><c>   2</c></rc>
    <rc><c>C </c><c>   2</c></rc>
    <rc><c>C </c><c>   2</c></rc>
    <rc><c>H </c><c>   3</c></rc>
    <rc><c>H </c><c>   3</c></rc>
    <rc><c>H </c><c>   3</c></rc>
    <rc><c>H </c><c>   3</c></rc>
    <rc><c>H </c><c>   3</c></rc>
    <rc><c>H </c><c>   3</c></rc>
    <rc><c>H </c><c>   3</c></rc>
    <rc><c>H </c><c>   3</c></rc>
    <rc><c>H </c><c>   3</c></rc>
    <rc><c>H </c><c>   3</c></rc>
    <rc><c>H </c><c>   3</c></rc>
    <rc><c>H </c><c>   3</c></rc>
    <rc><c>H </c><c>   3</c></rc>
   </set>
  </array>
  <array name="atomtypes" >
   <dimension dim="1">type</dimension>
   <field type="int">atomspertype</field>
   <field type="string">element</field>
   <field>mass</field>
   <field>valence</field>
   <field type="string">pseudopotential</field>
   <set>
    <rc><c>   1</c><c>N </c><c>     14.00100000</c><c>      5.00000000</c><c>  PAW_PBE N 08Apr2002                   </c></rc>
    <rc><c>   5</c><c>C </c><c>     12.01100000</c><c>      4.00000000</c><c>  PAW_PBE C 08Apr2002                   </c></rc>
    <rc><c>  13</c><c>H </c><c>      1.00000000</c><c>      1.00000000</c><c>  PAW_PBE H 15Jun2001                   </c></rc>
   </set>
  </array>
 </atominfo>
 <structure name="initialpos" >
  <crystal>
   <varray name="basis" >
    <v>      22.91930000       0.00000000       0.00000000 </v>
    <v>       0.00000000      17.41290000       0.00000000 </v>
    <v>       0.00000000       0.00000000      16.83290000 </v>
   </varray>
   <i name="volume">   6717.86695635 </i>
   <varray name="rec_basis" >
    <v>       0.04363135       0.00000000       0.00000000 </v>
    <v>       0.00000000       0.05742869       0.00000000 </v>
    <v>       0.00000000       0.00000000       0.05940747 </v>
   </varray>
  </crystal>
  <varray name="positions" >
   <v>       0.62982316       0.48245928       0.47128855 </v>
   <v>       0.47501881       0.52367393       0.50313626 </v>
   <v>       0.53275990       0.48527392       0.53373847 </v>
   <v>       0.42361949       0.46999437       0.49936223 </v>
   <v>       0.58815691       0.52941746       0.51615005 </v>
   <v>       0.36500570       0.51051287       0.48013329 </v>
   <v>       0.45987394       0.57405165       0.54482932 </v>
   <v>       0.48329440       0.54732382       0.44371745 </v>
   <v>       0.53791587       0.42514436       0.51473904 </v>
   <v>       0.52865449       0.48207600       0.60147296 </v>
   <v>       0.42871032       0.43081878       0.44809860 </v>
   <v>       0.41239305       0.43528583       0.55475732 </v>
   <v>       0.61233882       0.55011713       0.57113437 </v>
   <v>       0.57954183       0.58149550       0.48284076 </v>
   <v>       0.36998985       0.55818822       0.43978537 </v>
   <v>       0.33250699       0.46771793       0.45699358 </v>
   <v>       0.34725991       0.52970833       0.53746891 </v>
   <v>       0.66008811       0.45776881       0.50736339 </v>
   <v>       0.65433146       0.52495443       0.44431577 </v>
  </varray>
 </structure>
 <calculation>
  <scstep>
   <time name="dav">   14.20   14.28</time>
   <time name="total">   17.21   17.32</time>
   <energy>
    <i name="alphaZ">      0.88187296 </i>
    <i name="ewald">   2342.43111664 </i>
    <i name="hartreedc">  -3089.34413231 </i>
    <i name="XCdc">    115.80006708 </i>
    <i name="pawpsdc">    775.28532018 </i>
    <i name="pawaedc">   -779.43874451 </i>
    <i name="eentropy">     -0.00076713 </i>
    <i name="bandstr">   -246.25589545 </i>
    <i name="atom">   1162.63359593 </i>
    <i name="e_fr_energy">    281.99243339 </i>
    <i name="e_wo_entrp">    281.99320051 </i>
    <i name="e_0_energy">    281.99281695 </i>
   </energy>
  </scstep>
  <scstep>
   <time name="dav">   17.06   17.14</time>
   <time name="total">   17.37   17.45</time>
   <energy>
    <i name="e_fr_energy">     66.72734072 </i>
    <i name="e_wo_entrp">     66.72734072 </i>
    <i name="e_0_energy">     66.72734072 </i>
   </energy>
  </scstep>
  <scstep>
   <time name="dav">   14.90   15.02</time>
   <time name="total">   15.15   15.27</time>
   <energy>
    <i name="e_fr_energy">    -87.42752505 </i>
    <i name="e_wo_entrp">    -87.42752505 </i>
    <i name="e_0_energy">    -87.42752505 </i>
   </energy>
  </scstep>
  <scstep>
   <time name="dav">   14.08   14.15</time>
   <time name="total">   14.37   14.44</time>
   <energy>
    <i name="e_fr_energy">   -111.86446181 </i>
    <i name="e_wo_entrp">   -111.86446181 </i>
    <i name="e_0_energy">   -111.86446181 </i>
   </energy>
  </scstep>
  <scstep>
   <time name="dav">   15.84   15.92</time>
   <time name="total">   16.98   17.07</time>
   <energy>
    <i name="e_fr_energy">   -112.55760888 </i>
    <i name="e_wo_entrp">   -112.55760888 </i>
    <i name="e_0_energy">   -112.55760888 </i>
   </energy>
  </scstep>
  <scstep>
   <time name="diag">    3.18    3.20</time>
   <time name="diis">    7.25    7.29</time>
   <time name="orth">    0.27    0.27</time>
   <time name="total">   13.87   13.97</time>
   <energy>
    <i name="e_fr_energy">   -103.30869284 </i>
    <i name="e_wo_entrp">   -103.30869284 </i>
    <i name="e_0_energy">   -103.30869284 </i>
   </energy>
  </scstep>
  <scstep>
   <time name="diag">    3.44    3.45</time>
   <time name="diis">    7.06    7.10</time>
   <time name="orth">    0.43    0.43</time>
   <time name="total">   14.21   14.28</time>
   <energy>
    <i name="e_fr_energy">   -101.51308413 </i>
    <i name="e_wo_entrp">   -101.51308413 </i>
    <i name="e_0_energy">   -101.51308413 </i>
   </energy>
  </scstep>
  <scstep>
   <time name="diag">    3.65    3.67</time>
   <time name="diis">    7.05    7.08</time>
   <time name="orth">    0.26    0.27</time>
   <time name="total">   14.24   14.31</time>
   <energy>
    <i name="e_fr_energy">   -101.19454179 </i>
    <i name="e_wo_entrp">   -101.19454179 </i>
    <i name="e_0_energy">   -101.19454179 </i>
   </energy>
  </scstep>
  <scstep>
   <time name="diag">    3.26    3.28</time>
   <time name="diis">    6.66    6.70</time>
   <time name="orth">    0.22    0.22</time>
   <time name="total">   13.52   13.61</time>
   <energy>
    <i name="e_fr_energy">   -101.05176963 </i>
    <i name="e_wo_entrp">   -101.05176963 </i>
    <i name="e_0_energy">   -101.05176963 </i>
   </energy>
  </scstep>
  <scstep>
   <time name="diag">    3.38    3.39</time>
   <time name="diis">    7.20    7.24</time>
   <time name="orth">    0.25    0.25</time>
   <time name="total">   14.25   14.35</time>
   <energy>
    <i name="e_fr_energy">   -101.06904692 </i>
    <i name="e_wo_entrp">   -101.06904692 </i>
    <i name="e_0_energy">   -101.06904692 </i>
   </energy>
  </scstep>
  <scstep>
   <time name="diag">    3.18    3.22</time>
   <time name="diis">    6.67    6.72</time>
   <time name="orth">    0.33    0.33</time>
   <time name="total">   13.79   13.90</time>
   <energy>
    <i name="e_fr_energy">   -101.05366376 </i>
    <i name="e_wo_entrp">   -101.05366376 </i>
    <i name="e_0_energy">   -101.05366376 </i>
   </energy>
  </scstep>
  <scstep>
   <time name="diag">    3.69    3.70</time>
   <time name="diis">    6.72    6.76</time>
   <time name="orth">    0.40    0.40</time>
   <time name="total">   14.10   14.18</time>
   <energy>
    <i name="e_fr_energy">   -101.05272351 </i>
    <i name="e_wo_entrp">   -101.05272351 </i>
    <i name="e_0_energy">   -101.05272351 </i>
   </energy>
  </scstep>
  <scstep>
   <time name="diag">    2.82    2.83</time>
   <time name="diis">    6.68    6.72</time>
   <time name="orth">    0.35    0.35</time>
   <time name="total">   13.47   13.54</time>
   <energy>
    <i name="e_fr_energy">   -101.05717438 </i>
    <i name="e_wo_entrp">   -101.05717438 </i>
    <i name="e_0_energy">   -101.05717438 </i>
   </energy>
  </scstep>
  <scstep>
   <time name="diag">    3.37    3.38</time>
   <time name="diis">    7.14    7.18</time>
   <time name="orth">    0.27    0.27</time>
   <time name="total">   14.43   14.51</time>
   <energy>
    <i name="e_fr_energy">   -101.06708318 </i>
    <i name="e_wo_entrp">   -101.06708318 </i>
    <i name="e_0_energy">   -101.06708318 </i>
   </energy>
  </scstep>
  <scstep>
   <time name="diag">    3.40    3.41</time>
   <time name="diis">    6.85    6.95</time>
   <time name="orth">    0.29    0.29</time>
   <time name="total">   14.19   14.33</time>
   <energy>
    <i name="e_fr_energy">   -101.07083546 </i>
    <i name="e_wo_entrp">   -101.07083546 </i>
    <i name="e_0_energy">   -101.07083546 </i>
   </energy>
  </scstep>
  <scstep>
   <time name="diag">    2.90    2.91</time>
   <time name="diis">    6.48    6.54</time>
   <time name="orth">    0.31    0.32</time>
   <time name="total">   13.48   13.57</time>
   <energy>
    <i name="e_fr_energy">   -101.07693085 </i>
    <i name="e_wo_entrp">   -101.07693085 </i>
    <i name="e_0_energy">   -101.07693085 </i>
   </energy>
  </scstep>
  <scstep>
   <time name="diag">    3.24    3.25</time>
   <time name="diis">    6.57    6.61</time>
   <time name="orth">    0.33    0.33</time>
   <time name="total">   13.58   13.67</time>
   <energy>
    <i name="e_fr_energy">   -101.07813216 </i>
    <i name="e_wo_entrp">   -101.07813216 </i>
    <i name="e_0_energy">   -101.07813216 </i>
   </energy>
  </scstep>
  <scstep>
   <time name="diag">    3.48    3.49</time>
   <time name="diis">    6.43    6.47</time>
   <time name="orth">    0.32    0.32</time>
   <time name="total">   14.00   14.07</time>
   <energy>
    <i name="e_fr_energy">   -101.07899398 </i>
    <i name="e_wo_entrp">   -101.07899398 </i>
    <i name="e_0_energy">   -101.07899398 </i>
   </energy>
  </scstep>
  <scstep>
   <time name="diag">    3.54    3.56</time>
   <time name="diis">    5.68    5.71</time>
   <time name="orth">    0.15    0.15</time>
   <time name="total">   13.20   13.31</time>
   <energy>
    <i name="e_fr_energy">   -101.07980566 </i>
    <i name="e_wo_entrp">   -101.07980566 </i>
    <i name="e_0_energy">   -101.07980566 </i>
   </energy>
  </scstep>
  <scstep>
   <time name="diag">    2.71    2.72</time>
   <time name="diis">    5.92    5.95</time>
   <time name="orth">    0.31    0.31</time>
   <time name="total">   12.80   12.88</time>
   <energy>
    <i name="e_fr_energy">   -101.08000591 </i>
    <i name="e_wo_entrp">   -101.08000591 </i>
    <i name="e_0_energy">   -101.08000591 </i>
   </energy>
  </scstep>
  <scstep>
   <time name="diag">    3.72    3.73</time>
   <time name="diis">    5.87    6.00</time>
   <time name="orth">    0.24    0.24</time>
   <time name="total">   13.59   13.75</time>
   <energy>
    <i name="e_fr_energy">   -101.08015615 </i>
    <i name="e_wo_entrp">   -101.08015615 </i>
    <i name="e_0_energy">   -101.08015615 </i>
   </energy>
  </scstep>
  <scstep>
   <time name="diag">    3.17    3.18</time>
   <time name="diis">    5.37    5.41</time>
   <time name="orth">    0.42    0.42</time>
   <time name="total">   11.17   11.25</time>
   <energy>
    <i name="alphaZ">      0.88187296 </i>
    <i name="ewald">   2342.43111664 </i>
    <i name="hartreedc">  -3287.67106330 </i>
    <i name="XCdc">    125.52287930 </i>
    <i name="pawpsdc">   2583.59610299 </i>
    <i name="pawaedc">  -2588.71753917 </i>
    <i name="eentropy">     -0.00000000 </i>
    <i name="bandstr">   -439.75715413 </i>
    <i name="atom">   1162.63359593 </i>
    <i name="e_fr_energy">   -101.08018879 </i>
    <i name="e_wo_entrp">   -101.08018879 </i>
    <i name="e_0_energy">   -101.08018879 </i>
   </energy>
  </scstep>
  <structure>
   <crystal>
    <varray name="basis" >
     <v>      22.91930000       0.00000000       0.00000000 </v>
     <v>       0.00000000      17.41290000       0.00000000 </v>
     <v>       0.00000000       0.00000000      16.83290000 </v>
    </varray>
    <i name="volume">   6717.86695635 </i>
    <varray name="rec_basis" >
     <v>       0.04363135       0.00000000       0.00000000 </v>
     <v>       0.00000000       0.05742869       0.00000000 </v>
     <v>       0.00000000       0.00000000       0.05940747 </v>
    </varray>
   </crystal>
   <varray name="positions" >
    <v>       0.62982316       0.48245928       0.47128855 </v>
    <v>       0.47501881       0.52367393       0.50313626 </v>
    <v>       0.53275990       0.48527392       0.53373847 </v>
    <v>       0.42361949       0.46999437       0.49936223 </v>
    <v>       0.58815691       0.52941746       0.51615005 </v>
    <v>       0.36500570       0.51051287       0.48013329 </v>
    <v>       0.45987394       0.57405165       0.54482932 </v>
    <v>       0.48329440       0.54732382       0.44371745 </v>
    <v>       0.53791587       0.42514436       0.51473904 </v>
    <v>       0.52865449       0.48207600       0.60147296 </v>
    <v>       0.42871032       0.43081878       0.44809860 </v>
    <v>       0.41239305       0.43528583       0.55475732 </v>
    <v>       0.61233882       0.55011713       0.57113437 </v>
    <v>       0.57954183       0.58149550       0.48284076 </v>
    <v>       0.36998985       0.55818822       0.43978537 </v>
    <v>       0.33250699       0.46771793       0.45699358 </v>
    <v>       0.34725991       0.52970833       0.53746891 </v>
    <v>       0.66008811       0.45776881       0.50736339 </v>
    <v>       0.65433146       0.52495443       0.44431577 </v>
   </varray>
  </structure>
  <varray name="forces" >
   <v>       0.79039493       0.98255349      -1.22858268 </v>
   <v>       0.17968829       0.67501654       1.63308421 </v>
   <v>      -1.15559915       0.46725483       2.13745696 </v>
   <v>      -1.60453104      -0.93306682      -0.55131771 </v>
   <v>       1.03108943      -0.04198026       1.37441781 </v>
   <v>      -0.30995855      -1.01958978       0.93579360 </v>
   <v>       0.98694196      -1.09263489      -1.08270716 </v>
   <v>      -0.11968302       0.16521205      -0.08067741 </v>
   <v>      -0.17043985       0.16149280      -0.32138752 </v>
   <v>      -0.05622967      -0.14613952      -1.08765314 </v>
   <v>       0.45078849      -0.35910545       0.42582534 </v>
   <v>       0.97631586       0.44902610      -0.83108208 </v>
   <v>      -0.96461151      -0.13227492      -0.34742455 </v>
   <v>      -0.24957374       0.33054506      -0.41954710 </v>
   <v>      -0.05555703       0.45002592      -0.44252683 </v>
   <v>       0.49286189       0.57125407       0.05558069 </v>
   <v>      -0.20644667       0.47547977      -0.16957233 </v>
   <v>      -0.13914342      -0.31763582       0.37066551 </v>
   <v>       0.12369278      -0.68543316      -0.37034561 </v>
  </varray>
  <varray name="stress" >
   <v>      -0.17835495      -0.06485284      -0.24895167 </v>
   <v>      -0.06485284      -0.21994825      -0.12279232 </v>
   <v>      -0.24895167      -0.12279233      -0.39870387 </v>
  </varray>
  <energy>
   <i name="e_fr_energy">   -101.25145589 </i>
   <i name="e_wo_entrp">   -101.25145589 </i>
   <i name="e_0_energy">   -101.25145589 </i>
  </energy>
  <time name="totalsc">  324.24  326.40</time>
  <eigenvalues>
   <array>
    <dimension dim="1">band</dimension>
    <dimension dim="2">kpoint</dimension>
    <dimension dim="3">spin</dimension>
    <field>eigene</field>
    <field>occ</field>
    <set>
     <set comment="spin 1">
      <set comment="kpoint 1">
       <r>  -21.9515    1.0000 </r>
       <r>  -19.4640    1.0000 </r>
       <r>  -17.9969    1.0000 </r>
       <r>  -16.1024    1.0000 </r>
       <r>  -14.2706    1.0000 </r>
       <r>  -13.7298    1.0000 </r>
       <r>  -11.6785    1.0000 </r>
       <r>  -11.4546    1.0000 </r>
       <r>  -10.8834    1.0000 </r>
       <r>  -10.4238    1.0000 </r>
       <r>   -9.6421    1.0000 </r>
       <r>   -9.4371    1.0000 </r>
       <r>   -9.0469    1.0000 </r>
       <r>   -8.2403    1.0000 </r>
       <r>   -7.9191    1.0000 </r>
       <r>   -7.7184    1.0000 </r>
       <r>   -7.3513    1.0000 </r>
       <r>   -7.0891    1.0000 </r>
       <r>   -5.4787    1.0000 </r>
       <r>   -0.6302    0.0000 </r>
       <r>   -0.3234    0.0000 </r>
       <r>   -0.0560    0.0000 </r>
       <r>    0.0130    0.0000 </r>
       <r>    0.1186    0.0000 </r>
       <r>    0.2383    0.0000 </r>
       <r>    0.4217    0.0000 </r>
       <r>    0.4504    0.0000 </r>
       <r>    0.4974    0.0000 </r>
       <r>    0.5241    0.0000 </r>
       <r>    0.5824    0.0000 </r>
       <r>    0.6969    0.0000 </r>
       <r>    0.8311    0.0000 </r>
      </set>
     </set>
    </set>
   </array>
  </eigenvalues>
  <separator name="orbital magnetization" >
   <v name="MAGDIPOLOUT">      0.00000000      0.00000000      0.00000000</v>
  </separator>
  <dos>
   <i name="efermi">     -5.20867128 </i>
   <total>
    <array>
     <dimension dim="1">gridpoints</dimension>
     <dimension dim="2">spin</dimension>
     <field>energy</field>
     <field>total</field>
     <field>integrated</field>
     <set>
      <set comment="spin 1">
       <r>   -23.0906     0.0000     0.0000 </r>
       <r>   -23.0071     0.0000     0.0000 </r>
       <r>   -22.9236     0.0000     0.0000 </r>
       <r>   -22.8400     0.0000     0.0000 </r>
       <r>   -22.7565     0.0000     0.0000 </r>
       <r>   -22.6730     0.0000     0.0000 </r>
       <r>   -22.5894     0.0000     0.0000 </r>
       <r>   -22.5059     0.0000     0.0000 </r>
       <r>   -22.4223     0.0000     0.0000 </r>
       <r>   -22.3388     0.0000     0.0000 </r>
       <r>   -22.2553     0.0000     0.0000 </r>
       <r>   -22.1717     0.0000     0.0000 </r>
       <r>   -22.0882     0.0013     0.0001 </r>
       <r>   -22.0047     1.5871     0.1327 </r>
       <r>   -21.9211    17.6818     1.6098 </r>
       <r>   -21.8376     4.6562     1.9987 </r>
       <r>   -21.7541     0.0152     2.0000 </r>
       <r>   -21.6705     0.0000     2.0000 </r>
       <r>   -21.5870     0.0000     2.0000 </r>
       <r>   -21.5034     0.0000     2.0000 </r>
       <r>   -21.4199     0.0000     2.0000 </r>
       <r>   -21.3364     0.0000     2.0000 </r>
       <r>   -21.2528     0.0000     2.0000 </r>
       <r>   -21.1693     0.0000     2.0000 </r>
       <r>   -21.0858     0.0000     2.0000 </r>
       <r>   -21.0022     0.0000     2.0000 </r>
       <r>   -20.9187     0.0000     2.0000 </r>
       <r>   -20.8352     0.0000     2.0000 </r>
       <r>   -20.7516     0.0000     2.0000 </r>
       <r>   -20.6681     0.0000     2.0000 </r>
       <r>   -20.5845     0.0000     2.0000 </r>
       <r>   -20.5010     0.0000     2.0000 </r>
       <r>   -20.4175     0.0000     2.0000 </r>
       <r>   -20.3339     0.0000     2.0000 </r>
       <r>   -20.2504     0.0000     2.0000 </r>
       <r>   -20.1669     0.0000     2.0000 </r>
       <r>   -20.0833     0.0000     2.0000 </r>
       <r>   -19.9998     0.0000     2.0000 </r>
       <r>   -19.9163     0.0000     2.0000 </r>
       <r>   -19.8327     0.0000     2.0000 </r>
       <r>   -19.7492     0.0000     2.0000 </r>
       <r>   -19.6656     0.0000     2.0000 </r>
       <r>   -19.5821     0.0100     2.0008 </r>
       <r>   -19.4986     3.9124     2.3277 </r>
       <r>   -19.4150    18.0276     3.8336 </r>
       <r>   -19.3315     1.9896     3.9998 </r>
       <r>   -19.2480     0.0021     4.0000 </r>
       <r>   -19.1644     0.0000     4.0000 </r>
       <r>   -19.0809     0.0000     4.0000 </r>
       <r>   -18.9974     0.0000     4.0000 </r>
       <r>   -18.9138     0.0000     4.0000 </r>
       <r>   -18.8303     0.0000     4.0000 </r>
       <r>   -18.7468     0.0000     4.0000 </r>
       <r>   -18.6632     0.0000     4.0000 </r>
       <r>   -18.5797     0.0000     4.0000 </r>
       <r>   -18.4961     0.0000     4.0000 </r>
       <r>   -18.4126     0.0000     4.0000 </r>
       <r>   -18.3291     0.0000     4.0000 </r>
       <r>   -18.2455     0.0000     4.0000 </r>
       <r>   -18.1620     0.0000     4.0000 </r>
       <r>   -18.0785     0.2515     4.0210 </r>
       <r>   -17.9949    12.2446     5.0439 </r>
       <r>   -17.9114    11.2587     5.9844 </r>
       <r>   -17.8279     0.1869     6.0000 </r>
       <r>   -17.7443     0.0000     6.0000 </r>
       <r>   -17.6608     0.0000     6.0000 </r>
       <r>   -17.5772     0.0000     6.0000 </r>
       <r>   -17.4937     0.0000     6.0000 </r>
       <r>   -17.4102     0.0000     6.0000 </r>
       <r>   -17.3266     0.0000     6.0000 </r>
       <r>   -17.2431     0.0000     6.0000 </r>
       <r>   -17.1596     0.0000     6.0000 </r>
       <r>   -17.0760     0.0000     6.0000 </r>
       <r>   -16.9925     0.0000     6.0000 </r>
       <r>   -16.9090     0.0000     6.0000 </r>
       <r>   -16.8254     0.0000     6.0000 </r>
       <r>   -16.7419     0.0000     6.0000 </r>
       <r>   -16.6583     0.0000     6.0000 </r>
       <r>   -16.5748     0.0000     6.0000 </r>
       <r>   -16.4913     0.0000     6.0000 </r>
       <r>   -16.4077     0.0000     6.0000 </r>
       <r>   -16.3242     0.0000     6.0000 </r>
       <r>   -16.2407     0.0011     6.0001 </r>
       <r>   -16.1571     1.4544     6.1216 </r>
       <r>   -16.0736    17.5148     7.5847 </r>
       <r>   -15.9901     4.9537     7.9985 </r>
       <r>   -15.9065     0.0178     8.0000 </r>
       <r>   -15.8230     0.0000     8.0000 </r>
       <r>   -15.7394     0.0000     8.0000 </r>
       <r>   -15.6559     0.0000     8.0000 </r>
       <r>   -15.5724     0.0000     8.0000 </r>
       <r>   -15.4888     0.0000     8.0000 </r>
       <r>   -15.4053     0.0000     8.0000 </r>
       <r>   -15.3218     0.0000     8.0000 </r>
       <r>   -15.2382     0.0000     8.0000 </r>
       <r>   -15.1547     0.0000     8.0000 </r>
       <r>   -15.0712     0.0000     8.0000 </r>
       <r>   -14.9876     0.0000     8.0000 </r>
       <r>   -14.9041     0.0000     8.0000 </r>
       <r>   -14.8206     0.0000     8.0000 </r>
       <r>   -14.7370     0.0000     8.0000 </r>
       <r>   -14.6535     0.0000     8.0000 </r>
       <r>   -14.5699     0.0000     8.0000 </r>
       <r>   -14.4864     0.0000     8.0000 </r>
       <r>   -14.4029     0.0022     8.0002 </r>
       <r>   -14.3193     2.0064     8.1678 </r>
       <r>   -14.2358    18.0378     9.6746 </r>
       <r>   -14.1523     3.8856     9.9992 </r>
       <r>   -14.0687     0.0098    10.0000 </r>
       <r>   -13.9852     0.0000    10.0000 </r>
       <r>   -13.9017     0.0000    10.0000 </r>
       <r>   -13.8181     0.1495    10.0125 </r>
       <r>   -13.7346    10.5342    10.8925 </r>
       <r>   -13.6510    12.9478    11.9741 </r>
       <r>   -13.5675     0.3101    12.0000 </r>
       <r>   -13.4840     0.0001    12.0000 </r>
       <r>   -13.4004     0.0000    12.0000 </r>
       <r>   -13.3169     0.0000    12.0000 </r>
       <r>   -13.2334     0.0000    12.0000 </r>
       <r>   -13.1498     0.0000    12.0000 </r>
       <r>   -13.0663     0.0000    12.0000 </r>
       <r>   -12.9828     0.0000    12.0000 </r>
       <r>   -12.8992     0.0000    12.0000 </r>
       <r>   -12.8157     0.0000    12.0000 </r>
       <r>   -12.7321     0.0000    12.0000 </r>
       <r>   -12.6486     0.0000    12.0000 </r>
       <r>   -12.5651     0.0000    12.0000 </r>
       <r>   -12.4815     0.0000    12.0000 </r>
       <r>   -12.3980     0.0000    12.0000 </r>
       <r>   -12.3145     0.0000    12.0000 </r>
       <r>   -12.2309     0.0000    12.0000 </r>
       <r>   -12.1474     0.0000    12.0000 </r>
       <r>   -12.0639     0.0000    12.0000 </r>
       <r>   -11.9803     0.0000    12.0000 </r>
       <r>   -11.8968     0.0000    12.0000 </r>
       <r>   -11.8132     0.0017    12.0001 </r>
       <r>   -11.7297     1.7679    12.1478 </r>
       <r>   -11.6462    17.8635    13.6401 </r>
       <r>   -11.5626     4.3230    14.0012 </r>
       <r>   -11.4791     5.8346    14.4886 </r>
       <r>   -11.3956    16.9570    15.9051 </r>
       <r>   -11.3120     1.1351    15.9999 </r>
       <r>   -11.2285     0.0007    16.0000 </r>
       <r>   -11.1450     0.0000    16.0000 </r>
       <r>   -11.0614     0.0000    16.0000 </r>
       <r>   -10.9779     0.0905    16.0076 </r>
       <r>   -10.8944     8.9801    16.7577 </r>
       <r>   -10.8108    14.3929    17.9601 </r>
       <r>   -10.7273     0.4781    18.0000 </r>
       <r>   -10.6437     0.0001    18.0000 </r>
       <r>   -10.5602     0.0014    18.0001 </r>
       <r>   -10.4767     1.6167    18.1352 </r>
       <r>   -10.3931    17.7149    19.6150 </r>
       <r>   -10.3096     4.5941    19.9988 </r>
       <r>   -10.2261     0.0147    20.0000 </r>
       <r>   -10.1425     0.0000    20.0000 </r>
       <r>   -10.0590     0.0000    20.0000 </r>
       <r>    -9.9755     0.0000    20.0000 </r>
       <r>    -9.8919     0.0000    20.0000 </r>
       <r>    -9.8084     0.0000    20.0000 </r>
       <r>    -9.7248     0.2306    20.0193 </r>
       <r>    -9.6413    11.9539    21.0178 </r>
       <r>    -9.5578    11.5605    21.9836 </r>
       <r>    -9.4742     3.7120    22.2937 </r>
       <r>    -9.3907    18.1602    23.8107 </r>
       <r>    -9.3072     2.2633    23.9998 </r>
       <r>    -9.2236     0.0028    24.0000 </r>
       <r>    -9.1401     0.1006    24.0084 </r>
       <r>    -9.0566     9.2971    24.7850 </r>
       <r>    -8.9730    14.1057    25.9634 </r>
       <r>    -8.8895     0.4382    26.0000 </r>
       <r>    -8.8059     0.0001    26.0000 </r>
       <r>    -8.7224     0.0000    26.0000 </r>
       <r>    -8.6389     0.0000    26.0000 </r>
       <r>    -8.5553     0.0000    26.0000 </r>
       <r>    -8.4718     0.0000    26.0000 </r>
       <r>    -8.3883     0.0003    26.0000 </r>
       <r>    -8.3047     0.8197    26.0685 </r>
       <r>    -8.2212    16.0773    27.4115 </r>
       <r>    -8.1377     7.0002    27.9963 </r>
       <r>    -8.0541     0.0457    28.0001 </r>
       <r>    -7.9706     1.7415    28.1456 </r>
       <r>    -7.8870    17.8399    29.6359 </r>
       <r>    -7.8035     4.5381    30.0150 </r>
       <r>    -7.7200    11.3655    30.9644 </r>
       <r>    -7.6364    12.1520    31.9796 </r>
       <r>    -7.5529     0.2447    32.0000 </r>
       <r>    -7.4694     0.0101    32.0008 </r>
       <r>    -7.3858     3.9199    32.3283 </r>
       <r>    -7.3023    18.0247    33.8340 </r>
       <r>    -7.2188     1.9878    34.0001 </r>
       <r>    -7.1352     2.2953    34.1918 </r>
       <r>    -7.0517    18.1707    35.7097 </r>
       <r>    -6.9682     3.4674    35.9994 </r>
       <r>    -6.8846     0.0075    36.0000 </r>
       <r>    -6.8011     0.0000    36.0000 </r>
       <r>    -6.7175     0.0000    36.0000 </r>
       <r>    -6.6340     0.0000    36.0000 </r>
       <r>    -6.5505     0.0000    36.0000 </r>
       <r>    -6.4669     0.0000    36.0000 </r>
       <r>    -6.3834     0.0000    36.0000 </r>
       <r>    -6.2999     0.0000    36.0000 </r>
       <r>    -6.2163     0.0000    36.0000 </r>
       <r>    -6.1328     0.0000    36.0000 </r>
       <r>    -6.0493     0.0000    36.0000 </r>
       <r>    -5.9657     0.0000    36.0000 </r>
       <r>    -5.8822     0.0000    36.0000 </r>
       <r>    -5.7986     0.0000    36.0000 </r>
       <r>    -5.7151     0.0000    36.0000 </r>
       <r>    -5.6316     0.0002    36.0000 </r>
       <r>    -5.5480     0.5961    36.0498 </r>
       <r>    -5.4645    15.1058    37.3117 </r>
       <r>    -5.3810     8.1713    37.9943 </r>
       <r>    -5.2974     0.0684    38.0000 </r>
       <r>    -5.2139     0.0000    38.0000 </r>
       <r>    -5.1304     0.0000    38.0000 </r>
       <r>    -5.0468     0.0000    38.0000 </r>
       <r>    -4.9633     0.0000    38.0000 </r>
       <r>    -4.8797     0.0000    38.0000 </r>
       <r>    -4.7962     0.0000    38.0000 </r>
       <r>    -4.7127     0.0000    38.0000 </r>
       <r>    -4.6291     0.0000    38.0000 </r>
       <r>    -4.5456     0.0000    38.0000 </r>
       <r>    -4.4621     0.0000    38.0000 </r>
       <r>    -4.3785     0.0000    38.0000 </r>
       <r>    -4.2950     0.0000    38.0000 </r>
       <r>    -4.2115     0.0000    38.0000 </r>
       <r>    -4.1279     0.0000    38.0000 </r>
       <r>    -4.0444     0.0000    38.0000 </r>
       <r>    -3.9608     0.0000    38.0000 </r>
       <r>    -3.8773     0.0000    38.0000 </r>
       <r>    -3.7938     0.0000    38.0000 </r>
       <r>    -3.7102     0.0000    38.0000 </r>
       <r>    -3.6267     0.0000    38.0000 </r>
       <r>    -3.5432     0.0000    38.0000 </r>
       <r>    -3.4596     0.0000    38.0000 </r>
       <r>    -3.3761     0.0000    38.0000 </r>
       <r>    -3.2926     0.0000    38.0000 </r>
       <r>    -3.2090     0.0000    38.0000 </r>
       <r>    -3.1255     0.0000    38.0000 </r>
       <r>    -3.0420     0.0000    38.0000 </r>
       <r>    -2.9584     0.0000    38.0000 </r>
       <r>    -2.8749     0.0000    38.0000 </r>
       <r>    -2.7913     0.0000    38.0000 </r>
       <r>    -2.7078     0.0000    38.0000 </r>
       <r>    -2.6243     0.0000    38.0000 </r>
       <r>    -2.5407     0.0000    38.0000 </r>
       <r>    -2.4572     0.0000    38.0000 </r>
       <r>    -2.3737     0.0000    38.0000 </r>
       <r>    -2.2901     0.0000    38.0000 </r>
       <r>    -2.2066     0.0000    38.0000 </r>
       <r>    -2.1231     0.0000    38.0000 </r>
       <r>    -2.0395     0.0000    38.0000 </r>
       <r>    -1.9560     0.0000    38.0000 </r>
       <r>    -1.8724     0.0000    38.0000 </r>
       <r>    -1.7889     0.0000    38.0000 </r>
       <r>    -1.7054     0.0000    38.0000 </r>
       <r>    -1.6218     0.0000    38.0000 </r>
       <r>    -1.5383     0.0000    38.0000 </r>
       <r>    -1.4548     0.0000    38.0000 </r>
       <r>    -1.3712     0.0000    38.0000 </r>
       <r>    -1.2877     0.0000    38.0000 </r>
       <r>    -1.2042     0.0000    38.0000 </r>
       <r>    -1.1206     0.0000    38.0000 </r>
       <r>    -1.0371     0.0000    38.0000 </r>
       <r>    -0.9535     0.0000    38.0000 </r>
       <r>    -0.8700     0.0000    38.0000 </r>
       <r>    -0.7865     0.0001    38.0000 </r>
       <r>    -0.7029     0.4735    38.0396 </r>
       <r>    -0.6194    14.3615    39.2393 </r>
       <r>    -0.5359     9.0150    39.9924 </r>
       <r>    -0.4523     0.0947    40.0003 </r>
       <r>    -0.3688     2.3804    40.1991 </r>
       <r>    -0.2853    18.1976    41.7193 </r>
       <r>    -0.2017     3.3541    41.9995 </r>
       <r>    -0.1182     0.9480    42.0787 </r>
       <r>    -0.0347    18.5839    43.6311 </r>
       <r>     0.0489    25.1905    45.7354 </r>
       <r>     0.1324    18.8126    47.3069 </r>
       <r>     0.2160    14.5316    48.5208 </r>
       <r>     0.2995    16.7118    49.9169 </r>
       <r>     0.3830     4.9699    50.3321 </r>
       <r>     0.4666    39.5644    53.6371 </r>
       <r>     0.5501    49.3401    57.7588 </r>
       <r>     0.6336    25.9242    59.9244 </r>
       <r>     0.7172    18.0695    61.4339 </r>
       <r>     0.8007    11.4088    62.3869 </r>
       <r>     0.8842    17.7218    63.8673 </r>
       <r>     0.9678     1.5871    63.9999 </r>
       <r>     1.0513     0.0013    64.0000 </r>
       <r>     1.1349     0.0000    64.0000 </r>
       <r>     1.2184     0.0000    64.0000 </r>
       <r>     1.3019     0.0000    64.0000 </r>
       <r>     1.3855     0.0000    64.0000 </r>
       <r>     1.4690     0.0000    64.0000 </r>
       <r>     1.5525     0.0000    64.0000 </r>
       <r>     1.6361     0.0000    64.0000 </r>
       <r>     1.7196     0.0000    64.0000 </r>
       <r>     1.8031     0.0000    64.0000 </r>
       <r>     1.8867     0.0000    64.0000 </r>
       <r>     1.9702     0.0000    64.0000 </r>
      </set>
     </set>
    </array>
   </total>
  </dos>
 </calculation>
 <structure name="finalpos" >
  <crystal>
   <varray name="basis" >
    <v>      22.91930000       0.00000000       0.00000000 </v>
    <v>       0.00000000      17.41290000       0.00000000 </v>
    <v>       0.00000000       0.00000000      16.83290000 </v>
   </varray>
   <i name="volume">   6717.86695635 </i>
   <varray name="rec_basis" >
    <v>       0.04363135       0.00000000       0.00000000 </v>
    <v>       0.00000000       0.05742869       0.00000000 </v>
    <v>       0.00000000       0.00000000       0.05940747 </v>
   </varray>
  </crystal>
  <varray name="positions" >
   <v>       0.62982316       0.48245928       0.47128855 </v>
   <v>       0.47501881       0.52367393       0.50313626 </v>
   <v>       0.53275990       0.48527392       0.53373847 </v>
   <v>       0.42361949       0.46999437       0.49936223 </v>
   <v>       0.58815691       0.52941746       0.51615005 </v>
   <v>       0.36500570       0.51051287       0.48013329 </v>
   <v>       0.45987394       0.57405165       0.54482932 </v>
   <v>       0.48329440       0.54732382       0.44371745 </v>
   <v>       0.53791587       0.42514436       0.51473904 </v>
   <v>       0.52865449       0.48207600       0.60147296 </v>
   <v>       0.42871032       0.43081878       0.44809860 </v>
   <v>       0.41239305       0.43528583       0.55475732 </v>
   <v>       0.61233882       0.55011713       0.57113437 </v>
   <v>       0.57954183       0.58149550       0.48284076 </v>
   <v>       0.36998985       0.55818822       0.43978537 </v>
   <v>       0.33250699       0.46771793       0.45699358 </v>
   <v>       0.34725991       0.52970833       0.53746891 </v>
   <v>       0.66008811       0.45776881       0.50736339 </v>
   <v>       0.65433146       0.52495443       0.44431577 </v>
  </varray>
 </structure>
</modeling>
