 vasp.6.3.2 27Jun22 (build Oct 05 2023 17:59:42) gamma-only                     
  
 POSCAR found type information on POSCAR C H N 
 03/POSCAR found :  3 types and      18 ions
 scaLAPACK will be used
 -----------------------------------------------------------------------------
|                                                                             |
|               ----> ADVICE to this user running VASP <----                  |
|                                                                             |
|     You have a (more or less) 'large supercell' and for larger cells it     |
|     might be more efficient to use real-space projection operators.         |
|     Therefore, try LREAL= Auto in the INCAR file.                           |
|     Mind: For very accurate calculation, you might also keep the            |
|     reciprocal projection scheme (i.e. LREAL=.FALSE.).                      |
|                                                                             |
 -----------------------------------------------------------------------------

 LDA part: xc-table for Pade appr. of Perdew
 POSCAR found type information on POSCAR C H N 
 00/POSCAR found :  3 types and      18 ions
 POSCAR found type information on POSCAR C H N 
 10/POSCAR found :  3 types and      18 ions
 Jacobian:    24.2830561029085     
 POSCAR found type information on POSCAR C H N 
 00/POSCAR found :  3 types and      18 ions
 POSCAR found type information on POSCAR C H N 
 10/POSCAR found :  3 types and      18 ions
 POSCAR, INCAR and KPOINTS ok, starting setup
 FFT: planning ... GRIDC
 FFT: planning ... GRID_SOFT
 FFT: planning ... GRID
 WAVECAR not read
 entering main loop
       N       E                     dE             d eps       ncg     rms          rms(c)
DAV:   1     0.446658575250E+03    0.44666E+03   -0.12691E+04    86   0.725E+02
DAV:   2     0.104287395910E+03   -0.34237E+03   -0.32215E+03   108   0.142E+02
DAV:   3    -0.100116887867E+03   -0.20440E+03   -0.20362E+03    84   0.117E+02
DAV:   4    -0.124650551499E+03   -0.24534E+02   -0.24423E+02    84   0.599E+01
DAV:   5    -0.125154906193E+03   -0.50435E+00   -0.50143E+00   100   0.942E+00    0.180E+01
RMM:   6    -0.116660358616E+03    0.84945E+01   -0.12564E+01    70   0.136E+01    0.993E+00
RMM:   7    -0.114573361361E+03    0.20870E+01   -0.91070E+00    70   0.116E+01    0.418E+00
RMM:   8    -0.114408508025E+03    0.16485E+00   -0.99781E-01    71   0.462E+00    0.217E+00
RMM:   9    -0.114344103356E+03    0.64405E-01   -0.30448E-01    71   0.228E+00    0.371E-01
RMM:  10    -0.114354934088E+03   -0.10831E-01   -0.76963E-02    80   0.107E+00    0.241E-01
RMM:  11    -0.114364257450E+03   -0.93234E-02   -0.15087E-02    70   0.534E-01    0.137E-01
RMM:  12    -0.114369753758E+03   -0.54963E-02   -0.60492E-03    74   0.303E-01    0.110E-01
RMM:  13    -0.114382724273E+03   -0.12971E-01   -0.63277E-03    70   0.269E-01    0.833E-02
RMM:  14    -0.114385658950E+03   -0.29347E-02   -0.22788E-03    75   0.152E-01    0.414E-02
RMM:  15    -0.114394755744E+03   -0.90968E-02   -0.21437E-03    72   0.135E-01    0.318E-02
RMM:  16    -0.114396598079E+03   -0.18423E-02   -0.49221E-04    69   0.643E-02    0.209E-02
RMM:  17    -0.114398768301E+03   -0.21702E-02   -0.34641E-04    69   0.617E-02    0.127E-02
RMM:  18    -0.114399267883E+03   -0.49958E-03   -0.11187E-04    64   0.310E-02    0.618E-03
RMM:  19    -0.114399580189E+03   -0.31231E-03   -0.53492E-05    58   0.210E-02    0.429E-03
RMM:  20    -0.114399641850E+03   -0.61661E-04   -0.94887E-06    44   0.106E-02    0.185E-03
RMM:  21    -0.114399705228E+03   -0.63378E-04   -0.37415E-06    43   0.715E-03    0.117E-03
RMM:  22    -0.114399728386E+03   -0.23157E-04   -0.13568E-06    32   0.445E-03    0.944E-04
RMM:  23    -0.114399740518E+03   -0.12133E-04   -0.77052E-07    32   0.385E-03    0.466E-04
RMM:  24    -0.114399742914E+03   -0.23953E-05    0.00000E+00    20   0.291E-03
   1 F= -.11466310E+03 E0= -.11466310E+03  d E =-.114663E+03
 BRION: g(F)=  0.700E+00 g(S)=  0.000E+00
 bond charge predicted
       N       E                     dE             d eps       ncg     rms          rms(c)
DAV:   1    -0.114557734404E+03   -0.15799E+00   -0.43879E+00    76   0.112E+01    0.398E-01
RMM:   2    -0.114560837108E+03   -0.31027E-02   -0.68610E-02    70   0.139E+00    0.257E-01
RMM:   3    -0.114560789367E+03    0.47741E-04   -0.13552E-02    72   0.619E-01    0.891E-02
RMM:   4    -0.114561121325E+03   -0.33196E-03   -0.34298E-03    77   0.295E-01    0.384E-02
RMM:   5    -0.114561200667E+03   -0.79343E-04   -0.73496E-04    81   0.131E-01    0.232E-02
RMM:   6    -0.114561218683E+03   -0.18015E-04   -0.10263E-04    61   0.467E-02    0.774E-03
RMM:   7    -0.114561224105E+03   -0.54217E-05   -0.88186E-06    45   0.151E-02
   2 F= -.11482392E+03 E0= -.11482392E+03  d E =-.160822E+00
 BRION: g(F)=  0.533E+00 g(S)=  0.000E+00 retain N=  1 mean eig= 1.03
 eig:   1.026
 bond charge predicted
       N       E                     dE             d eps       ncg     rms          rms(c)
DAV:   1    -0.114695471679E+03   -0.13425E+00   -0.35935E+00    92   0.102E+01    0.373E-01
RMM:   2    -0.114697908082E+03   -0.24364E-02   -0.53936E-02    70   0.126E+00    0.231E-01
RMM:   3    -0.114697904817E+03    0.32650E-05   -0.10266E-02    71   0.543E-01    0.860E-02
RMM:   4    -0.114698172612E+03   -0.26780E-03   -0.27771E-03    77   0.269E-01    0.386E-02
RMM:   5    -0.114698230629E+03   -0.58016E-04   -0.60650E-04    79   0.121E-01    0.186E-02
RMM:   6    -0.114698243577E+03   -0.12948E-04   -0.95068E-05    67   0.460E-02    0.113E-02
RMM:   7    -0.114698255507E+03   -0.11931E-04   -0.16590E-05    46   0.179E-02    0.256E-03
RMM:   8    -0.114698260203E+03   -0.46959E-05   -0.32733E-06    45   0.932E-03
   3 F= -.11496043E+03 E0= -.11496043E+03  d E =-.136511E+00
 BRION: g(F)=  0.468E+00 g(S)=  0.000E+00 retain N=  2 mean eig= 1.17
 eig:   1.166  1.166
 bond charge predicted
       N       E                     dE             d eps       ncg     rms          rms(c)
DAV:   1    -0.114889647617E+03   -0.19139E+00   -0.95521E+00    76   0.166E+01    0.573E-01
RMM:   2    -0.114896484205E+03   -0.68366E-02   -0.13920E-01    70   0.201E+00    0.361E-01
RMM:   3    -0.114896701779E+03   -0.21757E-03   -0.27630E-02    71   0.888E-01    0.111E-01
RMM:   4    -0.114897507461E+03   -0.80568E-03   -0.74252E-03    80   0.427E-01    0.584E-02
RMM:   5    -0.114897583973E+03   -0.76512E-04   -0.12512E-03    77   0.180E-01    0.328E-02
RMM:   6    -0.114897641234E+03   -0.57261E-04   -0.27410E-04    77   0.807E-02    0.141E-02
RMM:   7    -0.114897647677E+03   -0.64431E-05   -0.43659E-05    56   0.303E-02
   4 F= -.11515900E+03 E0= -.11515900E+03  d E =-.198569E+00
 BRION: g(F)=  0.335E+00 g(S)=  0.000E+00 retain N=  3 mean eig= 2.89
 eig:   3.788  3.788  1.082
 bond charge predicted
       N       E                     dE             d eps       ncg     rms          rms(c)
DAV:   1    -0.115077794202E+03   -0.18015E+00   -0.51894E+01    84   0.386E+01    0.154E+00
RMM:   2    -0.115119509330E+03   -0.41715E-01   -0.80478E-01    70   0.490E+00    0.890E-01
RMM:   3    -0.115117678699E+03    0.18306E-02   -0.14773E-01    71   0.212E+00    0.330E-01
RMM:   4    -0.115121806526E+03   -0.41278E-02   -0.44118E-02    78   0.105E+00    0.147E-01
RMM:   5    -0.115122355659E+03   -0.54913E-03   -0.79800E-03    74   0.457E-01    0.698E-02
RMM:   6    -0.115122633075E+03   -0.27742E-03   -0.20923E-03    83   0.213E-01    0.421E-02
RMM:   7    -0.115122659568E+03   -0.26493E-04   -0.31703E-04    71   0.793E-02    0.235E-02
RMM:   8    -0.115122735737E+03   -0.76169E-04   -0.82064E-05    65   0.429E-02    0.102E-02
RMM:   9    -0.115122755211E+03   -0.19474E-04   -0.11169E-05    45   0.164E-02    0.779E-03
RMM:  10    -0.115122816674E+03   -0.61463E-04   -0.18160E-05    45   0.160E-02    0.438E-03
RMM:  11    -0.115122823621E+03   -0.69468E-05   -0.27813E-06    45   0.779E-03
   5 F= -.11538264E+03 E0= -.11538264E+03  d E =-.223641E+00
 BRION: g(F)=  0.203E+00 g(S)=  0.000E+00 retain N=  4 mean eig= 4.72
 eig:   7.757  7.757  1.683  1.683
 bond charge predicted
       N       E                     dE             d eps       ncg     rms          rms(c)
DAV:   1    -0.115157200014E+03   -0.34383E-01   -0.37640E-01    76   0.344E+00    0.137E-01
RMM:   2    -0.115157534226E+03   -0.33421E-03   -0.62997E-03    70   0.427E-01    0.877E-02
RMM:   3    -0.115157535627E+03   -0.14012E-05   -0.10795E-03    70   0.185E-01    0.320E-02
RMM:   4    -0.115157571371E+03   -0.35744E-04   -0.31602E-04    75   0.923E-02    0.156E-02
RMM:   5    -0.115157581617E+03   -0.10246E-04   -0.61619E-05    63   0.414E-02    0.748E-03
RMM:   6    -0.115157587716E+03   -0.60990E-05   -0.12680E-05    46   0.190E-02
   6 F= -.11541736E+03 E0= -.11541736E+03  d E =-.347222E-01
 BRION: g(F)=  0.170E+00 g(S)=  0.000E+00 retain N=  4 mean eig= 4.31
 eig:   6.496  6.496  1.075  3.165
 bond charge predicted
       N       E                     dE             d eps       ncg     rms          rms(c)
DAV:   1    -0.115211250106E+03   -0.53668E-01   -0.24054E+00    70   0.891E+00    0.360E-01
RMM:   2    -0.115212204234E+03   -0.95413E-03   -0.32681E-02    70   0.103E+00    0.221E-01
RMM:   3    -0.115212368441E+03   -0.16421E-03   -0.77524E-03    70   0.465E-01    0.673E-02
RMM:   4    -0.115212625668E+03   -0.25723E-03   -0.22244E-03    82   0.226E-01    0.523E-02
RMM:   5    -0.115212606280E+03    0.19388E-04   -0.34533E-04    70   0.982E-02    0.307E-02
RMM:   6    -0.115212642923E+03   -0.36643E-04   -0.20912E-04    71   0.674E-02    0.181E-02
RMM:   7    -0.115212635245E+03    0.76785E-05   -0.46430E-05    62   0.328E-02
   7 F= -.11547198E+03 E0= -.11547198E+03  d E =-.546159E-01
 BRION: g(F)=  0.156E+00 g(S)=  0.000E+00 retain N=  5 mean eig= 3.80
 eig:   6.798  6.798  0.860  2.567  1.979
 bond charge predicted
       N       E                     dE             d eps       ncg     rms          rms(c)
DAV:   1    -0.115260777796E+03   -0.48135E-01   -0.73922E+00    70   0.156E+01    0.657E-01
RMM:   2    -0.115263924573E+03   -0.31468E-02   -0.99035E-02    70   0.180E+00    0.388E-01
RMM:   3    -0.115264257731E+03   -0.33316E-03   -0.23518E-02    71   0.811E-01    0.131E-01
RMM:   4    -0.115264947769E+03   -0.69004E-03   -0.60448E-03    81   0.380E-01    0.877E-02
RMM:   5    -0.115265090531E+03   -0.14276E-03   -0.19068E-03    70   0.202E-01    0.422E-02
RMM:   6    -0.115265032020E+03    0.58511E-04   -0.31864E-04    71   0.973E-02    0.241E-02
RMM:   7    -0.115265046062E+03   -0.14042E-04   -0.84090E-05    61   0.429E-02    0.230E-02
RMM:   8    -0.115265074156E+03   -0.28094E-04   -0.17331E-05    46   0.183E-02    0.186E-02
RMM:   9    -0.115265127498E+03   -0.53342E-04   -0.29920E-05    51   0.209E-02    0.164E-02
RMM:  10    -0.115265130786E+03   -0.32875E-05   -0.14505E-05    46   0.158E-02
   8 F= -.11552373E+03 E0= -.11552373E+03  d E =-.517511E-01
 BRION: g(F)=  0.996E-01 g(S)=  0.000E+00 retain N=  4 mean eig= 4.52
 eig:   7.782  7.782  0.481  2.051
 bond charge predicted
       N       E                     dE             d eps       ncg     rms          rms(c)
DAV:   1    -0.115337553159E+03   -0.72426E-01   -0.26818E+00    70   0.949E+00    0.366E-01
RMM:   2    -0.115339188353E+03   -0.16352E-02   -0.33017E-02    70   0.104E+00    0.225E-01
RMM:   3    -0.115339597747E+03   -0.40939E-03   -0.69751E-03    71   0.465E-01    0.649E-02
RMM:   4    -0.115339828467E+03   -0.23072E-03   -0.19330E-03    81   0.215E-01    0.406E-02
RMM:   5    -0.115339857194E+03   -0.28727E-04   -0.26205E-04    73   0.889E-02    0.195E-02
RMM:   6    -0.115339885827E+03   -0.28633E-04   -0.73303E-05    68   0.438E-02    0.910E-03
RMM:   7    -0.115339895966E+03   -0.10139E-04   -0.17019E-05    48   0.202E-02    0.699E-03
RMM:   8    -0.115339926490E+03   -0.30524E-04   -0.71776E-06    45   0.125E-02    0.319E-03
RMM:   9    -0.115339926918E+03   -0.42784E-06   -0.15848E-06    44   0.661E-03
   9 F= -.11559819E+03 E0= -.11559819E+03  d E =-.744575E-01
 BRION: g(F)=  0.689E-01 g(S)=  0.000E+00 retain N=  3 mean eig= 4.34
 eig:   5.625  5.625  1.774
 bond charge predicted
       N       E                     dE             d eps       ncg     rms          rms(c)
DAV:   1    -0.115390030841E+03   -0.50104E-01   -0.23108E+00    70   0.876E+00    0.342E-01
RMM:   2    -0.115391395364E+03   -0.13645E-02   -0.27120E-02    70   0.945E-01    0.205E-01
RMM:   3    -0.115391860337E+03   -0.46497E-03   -0.55316E-03    71   0.416E-01    0.668E-02
RMM:   4    -0.115392069975E+03   -0.20964E-03   -0.15956E-03    81   0.195E-01    0.365E-02
RMM:   5    -0.115392090326E+03   -0.20351E-04   -0.22027E-04    71   0.828E-02    0.145E-02
RMM:   6    -0.115392104692E+03   -0.14366E-04   -0.56744E-05    61   0.395E-02    0.812E-03
RMM:   7    -0.115392112593E+03   -0.79015E-05   -0.13252E-05    46   0.184E-02
  10 F= -.11565000E+03 E0= -.11565000E+03  d E =-.518092E-01
 BRION: g(F)=  0.594E-01 g(S)=  0.000E+00 retain N=  4 mean eig= 4.33
 eig:   6.498  6.498  2.162  2.162
 bond charge predicted
       N       E                     dE             d eps       ncg     rms          rms(c)
DAV:   1    -0.115418274382E+03   -0.26170E-01   -0.93439E-01    70   0.547E+00    0.199E-01
RMM:   2    -0.115419137403E+03   -0.86302E-03   -0.15530E-02    70   0.697E-01    0.124E-01
RMM:   3    -0.115419202721E+03   -0.65318E-04   -0.27877E-03    70   0.301E-01    0.494E-02
RMM:   4    -0.115419299972E+03   -0.97252E-04   -0.85512E-04    78   0.149E-01    0.266E-02
RMM:   5    -0.115419313934E+03   -0.13962E-04   -0.14731E-04    75   0.654E-02    0.139E-02
RMM:   6    -0.115419323896E+03   -0.99616E-05   -0.36689E-05    56   0.323E-02
  11 F= -.11567716E+03 E0= -.11567716E+03  d E =-.271637E-01
 BRION: g(F)=  0.467E-01 g(S)=  0.000E+00 retain N=  2 mean eig= 2.39
 eig:   2.390  2.390
 bond charge predicted
       N       E                     dE             d eps       ncg     rms          rms(c)
DAV:   1    -0.115449667199E+03   -0.30353E-01   -0.14842E+00    70   0.695E+00    0.286E-01
RMM:   2    -0.115450695176E+03   -0.10280E-02   -0.19391E-02    70   0.788E-01    0.166E-01
RMM:   3    -0.115451025375E+03   -0.33020E-03   -0.36070E-03    70   0.344E-01    0.622E-02
RMM:   4    -0.115451180050E+03   -0.15468E-03   -0.10813E-03    78   0.167E-01    0.303E-02
RMM:   5    -0.115451203391E+03   -0.23341E-04   -0.19676E-04    75   0.741E-02    0.125E-02
RMM:   6    -0.115451213638E+03   -0.10247E-04   -0.33557E-05    54   0.310E-02    0.659E-03
RMM:   7    -0.115451219582E+03   -0.59434E-05   -0.96230E-06    45   0.155E-02
  12 F= -.11570879E+03 E0= -.11570879E+03  d E =-.316328E-01
 BRION: g(F)=  0.403E-01 g(S)=  0.000E+00 retain N=  2 mean eig= 2.54
 eig:   1.927  3.149
 bond charge predicted
       N       E                     dE             d eps       ncg     rms          rms(c)
DAV:   1    -0.115470775404E+03   -0.19562E-01   -0.57658E-01    70   0.427E+00    0.187E-01
RMM:   2    -0.115471241881E+03   -0.46648E-03   -0.84623E-03    70   0.508E-01    0.106E-01
RMM:   3    -0.115471389475E+03   -0.14759E-03   -0.14447E-03    70   0.219E-01    0.422E-02
RMM:   4    -0.115471451031E+03   -0.61556E-04   -0.39221E-04    75   0.106E-01    0.192E-02
RMM:   5    -0.115471462654E+03   -0.11623E-04   -0.80474E-05    65   0.488E-02    0.763E-03
RMM:   6    -0.115471467780E+03   -0.51253E-05   -0.16034E-05    47   0.225E-02
  13 F= -.11572894E+03 E0= -.11572894E+03  d E =-.201433E-01
 BRION: g(F)=  0.378E-01 g(S)=  0.000E+00 retain N=  3 mean eig= 4.45
 eig:   1.160  6.100  6.100
 bond charge predicted
       N       E                     dE             d eps       ncg     rms          rms(c)
DAV:   1    -0.115488648214E+03   -0.17186E-01   -0.44807E-01    70   0.373E+00    0.170E-01
RMM:   2    -0.115488940238E+03   -0.29202E-03   -0.66731E-03    70   0.441E-01    0.966E-02
RMM:   3    -0.115489043781E+03   -0.10354E-03   -0.11191E-03    70   0.191E-01    0.441E-02
RMM:   4    -0.115489094280E+03   -0.50499E-04   -0.30752E-04    72   0.941E-02    0.199E-02
RMM:   5    -0.115489106136E+03   -0.11856E-04   -0.69847E-05    63   0.436E-02    0.100E-02
RMM:   6    -0.115489112254E+03   -0.61180E-05   -0.12470E-05    45   0.185E-02
  14 F= -.11574645E+03 E0= -.11574645E+03  d E =-.175130E-01
 BRION: g(F)=  0.363E-01 g(S)=  0.000E+00 retain N=  3 mean eig= 5.07
 eig:   6.749  6.749  1.711
 bond charge predicted
       N       E                     dE             d eps       ncg     rms          rms(c)
DAV:   1    -0.115513926539E+03   -0.24820E-01   -0.11810E+00    70   0.604E+00    0.263E-01
RMM:   2    -0.115514976292E+03   -0.10498E-02   -0.17873E-02    70   0.725E-01    0.151E-01
RMM:   3    -0.115515246008E+03   -0.26972E-03   -0.29162E-03    70   0.311E-01    0.601E-02
RMM:   4    -0.115515352809E+03   -0.10680E-03   -0.71954E-04    73   0.147E-01    0.266E-02
RMM:   5    -0.115515374552E+03   -0.21744E-04   -0.17362E-04    77   0.695E-02    0.105E-02
RMM:   6    -0.115515381265E+03   -0.67128E-05   -0.30670E-05    52   0.303E-02
  15 F= -.11577259E+03 E0= -.11577259E+03  d E =-.261394E-01
 BRION: g(F)=  0.339E-01 g(S)=  0.000E+00 retain N=  3 mean eig= 4.91
 eig:   6.592  6.592  1.550
 bond charge predicted
       N       E                     dE             d eps       ncg     rms          rms(c)
DAV:   1    -0.115527234896E+03   -0.11860E-01   -0.30961E-01    70   0.310E+00    0.136E-01
RMM:   2    -0.115527496113E+03   -0.26122E-03   -0.47179E-03    70   0.373E-01    0.773E-02
RMM:   3    -0.115527581237E+03   -0.85124E-04   -0.77115E-04    70   0.161E-01    0.321E-02
RMM:   4    -0.115527613332E+03   -0.32096E-04   -0.18817E-04    72   0.764E-02    0.130E-02
RMM:   5    -0.115527623223E+03   -0.98904E-05   -0.47251E-05    58   0.366E-02
  16 F= -.11578475E+03 E0= -.11578475E+03  d E =-.121586E-01
 BRION: g(F)=  0.319E-01 g(S)=  0.000E+00 retain N=  3 mean eig= 2.95
 eig:   3.887  3.887  1.085
 bond charge predicted
       N       E                     dE             d eps       ncg     rms          rms(c)
DAV:   1    -0.115543479069E+03   -0.15866E-01   -0.63079E-01    70   0.439E+00    0.188E-01
RMM:   2    -0.115544036874E+03   -0.55781E-03   -0.96117E-03    70   0.530E-01    0.108E-01
RMM:   3    -0.115544193477E+03   -0.15660E-03   -0.15358E-03    70   0.227E-01    0.450E-02
RMM:   4    -0.115544253521E+03   -0.60044E-04   -0.37985E-04    73   0.108E-01    0.191E-02
RMM:   5    -0.115544266291E+03   -0.12770E-04   -0.90836E-05    65   0.505E-02    0.102E-02
RMM:   6    -0.115544271753E+03   -0.54618E-05   -0.13023E-05    46   0.203E-02
  17 F= -.11580128E+03 E0= -.11580128E+03  d E =-.165341E-01
 BRION: g(F)=  0.299E-01 g(S)=  0.000E+00 retain N=  3 mean eig= 5.22
 eig:   7.155  7.155  1.343
 bond charge predicted
       N       E                     dE             d eps       ncg     rms          rms(c)
DAV:   1    -0.115561117018E+03   -0.16851E-01   -0.92651E-01    70   0.531E+00    0.220E-01
RMM:   2    -0.115561997339E+03   -0.88032E-03   -0.14208E-02    70   0.645E-01    0.129E-01
RMM:   3    -0.115562210966E+03   -0.21363E-03   -0.22108E-03    70   0.274E-01    0.506E-02
RMM:   4    -0.115562286285E+03   -0.75320E-04   -0.49466E-04    71   0.128E-01    0.201E-02
RMM:   5    -0.115562303680E+03   -0.17395E-04   -0.14070E-04    75   0.619E-02    0.656E-03
RMM:   6    -0.115562309224E+03   -0.55436E-05   -0.22832E-05    47   0.272E-02
  18 F= -.11581921E+03 E0= -.11581921E+03  d E =-.179296E-01
 BRION: g(F)=  0.285E-01 g(S)=  0.000E+00 retain N=  2 mean eig= 7.18
 eig:   7.181  7.181
 bond charge predicted
       N       E                     dE             d eps       ncg     rms          rms(c)
DAV:   1    -0.115575582697E+03   -0.13279E-01   -0.75741E-01    70   0.479E+00    0.197E-01
RMM:   2    -0.115576252906E+03   -0.67021E-03   -0.11606E-02    70   0.584E-01    0.116E-01
RMM:   3    -0.115576421312E+03   -0.16841E-03   -0.18009E-03    70   0.248E-01    0.499E-02
RMM:   4    -0.115576484491E+03   -0.63179E-04   -0.41292E-04    70   0.118E-01    0.193E-02
RMM:   5    -0.115576500308E+03   -0.15816E-04   -0.11684E-04    71   0.568E-02    0.901E-03
RMM:   6    -0.115576507530E+03   -0.72225E-05   -0.20651E-05    47   0.255E-02
  19 F= -.11583329E+03 E0= -.11583329E+03  d E =-.140836E-01
 BRION: g(F)=  0.273E-01 g(S)=  0.000E+00 retain N=  2 mean eig= 6.70
 eig:   6.699  6.699
 bond charge predicted
       N       E                     dE             d eps       ncg     rms          rms(c)
DAV:   1    -0.115591647871E+03   -0.15148E-01   -0.15105E+00    70   0.676E+00    0.271E-01
RMM:   2    -0.115593115281E+03   -0.14674E-02   -0.23203E-02    70   0.827E-01    0.161E-01
RMM:   3    -0.115593430151E+03   -0.31487E-03   -0.35911E-03    70   0.351E-01    0.614E-02
RMM:   4    -0.115593543090E+03   -0.11294E-03   -0.80624E-04    72   0.163E-01    0.241E-02
RMM:   5    -0.115593565333E+03   -0.22243E-04   -0.21230E-04    77   0.777E-02    0.840E-03
RMM:   6    -0.115593573083E+03   -0.77497E-05   -0.38075E-05    54   0.344E-02
  20 F= -.11585024E+03 E0= -.11585024E+03  d E =-.169477E-01
 BRION: g(F)=  0.257E-01 g(S)=  0.000E+00 retain N=  2 mean eig= 5.34
 eig:   5.342  5.342
 bond charge predicted
       N       E                     dE             d eps       ncg     rms          rms(c)
DAV:   1    -0.115598123083E+03   -0.45577E-02   -0.26893E-01    70   0.286E+00    0.109E-01
RMM:   2    -0.115598358644E+03   -0.23556E-03   -0.40565E-03    70   0.350E-01    0.667E-02
RMM:   3    -0.115598416574E+03   -0.57930E-04   -0.65879E-04    70   0.149E-01    0.241E-02
RMM:   4    -0.115598439566E+03   -0.22992E-04   -0.14462E-04    71   0.693E-02    0.966E-03
RMM:   5    -0.115598448042E+03   -0.84765E-05   -0.37447E-05    52   0.337E-02
  21 F= -.11585509E+03 E0= -.11585509E+03  d E =-.484834E-02
 BRION: g(F)=  0.248E-01 g(S)=  0.000E+00 retain N=  3 mean eig= 5.65
 eig:   7.739  7.739  1.471
 bond charge predicted
       N       E                     dE             d eps       ncg     rms          rms(c)
DAV:   1    -0.115607931462E+03   -0.94919E-02   -0.16491E+00    70   0.706E+00    0.278E-01
RMM:   2    -0.115609489313E+03   -0.15579E-02   -0.25121E-02    70   0.863E-01    0.166E-01
RMM:   3    -0.115609817560E+03   -0.32825E-03   -0.39185E-03    70   0.366E-01    0.659E-02
RMM:   4    -0.115609938938E+03   -0.12138E-03   -0.88244E-04    71   0.172E-01    0.253E-02
RMM:   5    -0.115609963727E+03   -0.24789E-04   -0.23673E-04    77   0.827E-02    0.100E-02
RMM:   6    -0.115609972692E+03   -0.89654E-05   -0.42147E-05    57   0.367E-02
  22 F= -.11586648E+03 E0= -.11586648E+03  d E =-.113937E-01
 BRION: g(F)=  0.230E-01 g(S)=  0.000E+00 retain N=  2 mean eig= 5.50
 eig:   3.048  7.961
 bond charge predicted
       N       E                     dE             d eps       ncg     rms          rms(c)
DAV:   1    -0.115612457648E+03   -0.24939E-02   -0.15637E+00    70   0.688E+00    0.261E-01
RMM:   2    -0.115613892010E+03   -0.14344E-02   -0.23422E-02    70   0.839E-01    0.159E-01
RMM:   3    -0.115614169062E+03   -0.27705E-03   -0.37698E-03    70   0.357E-01    0.579E-02
RMM:   4    -0.115614280598E+03   -0.11154E-03   -0.82810E-04    71   0.166E-01    0.232E-02
RMM:   5    -0.115614304110E+03   -0.23512E-04   -0.22556E-04    76   0.807E-02    0.619E-03
RMM:   6    -0.115614312339E+03   -0.82290E-05   -0.43216E-05    56   0.360E-02
  23 F= -.11587075E+03 E0= -.11587075E+03  d E =-.426786E-02
 BRION: g(F)=  0.216E-01 g(S)=  0.000E+00
 BRIONS problems: POTIM should be increased
 retain N=  1 mean eig=14.40
 eig:  14.396
 bond charge predicted
       N       E                     dE             d eps       ncg     rms          rms(c)
DAV:   1    -0.115611564346E+03    0.27398E-02   -0.65906E-01    70   0.447E+00    0.168E-01
RMM:   2    -0.115612108323E+03   -0.54398E-03   -0.97460E-03    70   0.542E-01    0.103E-01
RMM:   3    -0.115612221365E+03   -0.11304E-03   -0.16261E-03    70   0.232E-01    0.407E-02
RMM:   4    -0.115612277328E+03   -0.55964E-04   -0.38142E-04    72   0.110E-01    0.176E-02
RMM:   5    -0.115612290749E+03   -0.13421E-04   -0.96970E-05    71   0.526E-02    0.718E-03
RMM:   6    -0.115612298252E+03   -0.75029E-05   -0.19192E-05    48   0.245E-02
  24 F= -.11586870E+03 E0= -.11586870E+03  d E =0.205582E-02
 BRION: g(F)=  0.209E-01 g(S)=  0.000E+00 retain N=  1 mean eig= 2.46
 eig:   2.457
 bond charge predicted
       N       E                     dE             d eps       ncg     rms          rms(c)
DAV:   1    -0.115610529244E+03    0.17615E-02   -0.22722E-02    76   0.852E-01    0.457E-02
RMM:   2    -0.115610535822E+03   -0.65781E-05   -0.38436E-04    70   0.105E-01    0.258E-02
RMM:   3    -0.115610541559E+03   -0.57367E-05   -0.60266E-05    61   0.444E-02
  25 F= -.11586698E+03 E0= -.11586698E+03  d E =0.171539E-02
 BRION: g(F)=  0.204E-01 g(S)=  0.000E+00 retain N=  1 mean eig= 0.55
 eig:   0.546
 bond charge predicted
       N       E                     dE             d eps       ncg     rms          rms(c)
DAV:   1    -0.115608326041E+03    0.22098E-02   -0.57828E-02    70   0.133E+00    0.519E-02
RMM:   2    -0.115608366872E+03   -0.40831E-04   -0.83831E-04    70   0.160E-01    0.310E-02
RMM:   3    -0.115608378079E+03   -0.11207E-04   -0.14599E-04    70   0.688E-02    0.122E-02
RMM:   4    -0.115608384546E+03   -0.64673E-05   -0.36139E-05    54   0.331E-02
  26 F= -.11586482E+03 E0= -.11586482E+03  d E =0.216057E-02
 BRION: g(F)=  0.194E-01 g(S)=  0.000E+00 retain N=  2 mean eig= 1.14
 eig:   0.124  2.156
 bond charge predicted
       N       E                     dE             d eps       ncg     rms          rms(c)
DAV:   1    -0.115562358859E+03    0.46019E-01   -0.51803E+00    70   0.126E+01    0.511E-01
RMM:   2    -0.115566528595E+03   -0.41697E-02   -0.74193E-02    70   0.151E+00    0.300E-01
RMM:   3    -0.115567222731E+03   -0.69414E-03   -0.14023E-02    71   0.659E-01    0.118E-01
RMM:   4    -0.115567620331E+03   -0.39760E-03   -0.31229E-03    77   0.305E-01    0.604E-02
RMM:   5    -0.115567683710E+03   -0.63379E-04   -0.69409E-04    74   0.142E-01    0.203E-02
RMM:   6    -0.115567705692E+03   -0.21981E-04   -0.15409E-04    72   0.666E-02    0.151E-02
RMM:   7    -0.115567712224E+03   -0.65325E-05   -0.19774E-05    46   0.230E-02
  27 F= -.11582423E+03 E0= -.11582423E+03  d E =0.405886E-01
 BRION: g(F)=  0.177E-01 g(S)=  0.000E+00 retain N=  2 mean eig= 4.38
 eig:   3.112  5.654
 bond charge predicted
       N       E                     dE             d eps       ncg     rms          rms(c)
DAV:   1    -0.115576504048E+03   -0.87984E-02   -0.15839E-01    76   0.223E+00    0.911E-02
RMM:   2    -0.115576627597E+03   -0.12355E-03   -0.23429E-03    70   0.269E-01    0.555E-02
RMM:   3    -0.115576660044E+03   -0.32447E-04   -0.42932E-04    71   0.116E-01    0.215E-02
RMM:   4    -0.115576678984E+03   -0.18940E-04   -0.10340E-04    71   0.560E-02    0.101E-02
RMM:   5    -0.115576684302E+03   -0.53179E-05   -0.23657E-05    49   0.265E-02
  28 F= -.11583319E+03 E0= -.11583319E+03  d E =-.896193E-02
 BRION: g(F)=  0.182E-01 g(S)=  0.000E+00 retain N=  1 mean eig= 0.56
 eig:   0.558
 bond charge predicted
       N       E                     dE             d eps       ncg     rms          rms(c)
DAV:   1    -0.115567926202E+03    0.87528E-02   -0.15745E-01    70   0.220E+00    0.877E-02
RMM:   2    -0.115568037359E+03   -0.11116E-03   -0.22437E-03    70   0.261E-01    0.524E-02
RMM:   3    -0.115568068144E+03   -0.30785E-04   -0.40188E-04    71   0.113E-01    0.208E-02
RMM:   4    -0.115568081400E+03   -0.13256E-04   -0.88009E-05    69   0.526E-02    0.104E-02
RMM:   5    -0.115568084146E+03   -0.27462E-05   -0.19695E-05    49   0.251E-02
  29 F= -.11582460E+03 E0= -.11582460E+03  d E =0.859764E-02
 BRION: g(F)=  0.151E-01 g(S)=  0.000E+00 retain N=  2 mean eig= 1.34
 eig:   0.743  1.927
 bond charge predicted
       N       E                     dE             d eps       ncg     rms          rms(c)
DAV:   1    -0.115562199931E+03    0.58815E-02   -0.66659E-02    70   0.143E+00    0.571E-02
RMM:   2    -0.115562245602E+03   -0.45672E-04   -0.10213E-03    70   0.178E-01    0.347E-02
RMM:   3    -0.115562258059E+03   -0.12457E-04   -0.19188E-04    71   0.774E-02    0.129E-02
RMM:   4    -0.115562264470E+03   -0.64101E-05   -0.45185E-05    60   0.372E-02
  30 F= -.11581879E+03 E0= -.11581879E+03  d E =0.580440E-02
 BRION: g(F)=  0.150E-01 g(S)=  0.000E+00 retain N=  2 mean eig= 0.95
 eig:   0.952  0.952
 bond charge predicted
       N       E                     dE             d eps       ncg     rms          rms(c)
DAV:   1    -0.115555190697E+03    0.70674E-02   -0.89968E-02    70   0.165E+00    0.657E-02
RMM:   2    -0.115555255442E+03   -0.64745E-04   -0.13628E-03    70   0.203E-01    0.399E-02
RMM:   3    -0.115555273118E+03   -0.17677E-04   -0.24837E-04    71   0.883E-02    0.166E-02
RMM:   4    -0.115555281579E+03   -0.84607E-05   -0.57545E-05    61   0.413E-02
  31 F= -.11581181E+03 E0= -.11581181E+03  d E =0.698602E-02
 BRION: g(F)=  0.145E-01 g(S)=  0.000E+00 retain N=  3 mean eig= 4.14
 eig:   5.747  5.747  0.924
 bond charge predicted
       N       E                     dE             d eps       ncg     rms          rms(c)
DAV:   1    -0.115326849285E+03    0.22842E+00   -0.32180E+01    70   0.312E+01    0.137E+00
RMM:   2    -0.115357574210E+03   -0.30725E-01   -0.50002E-01    70   0.390E+00    0.731E-01
RMM:   3    -0.115361359148E+03   -0.37849E-02   -0.86380E-02    71   0.166E+00    0.388E-01
RMM:   4    -0.115363379232E+03   -0.20201E-02   -0.19739E-02    73   0.789E-01    0.164E-01
RMM:   5    -0.115364010538E+03   -0.63131E-03   -0.54016E-03    79   0.380E-01    0.701E-02
RMM:   6    -0.115364121202E+03   -0.11066E-03   -0.71643E-04    74   0.148E-01    0.275E-02
RMM:   7    -0.115364172499E+03   -0.51298E-04   -0.19806E-04    73   0.699E-02    0.202E-02
RMM:   8    -0.115364216551E+03   -0.44051E-04   -0.32403E-05    51   0.279E-02    0.556E-03
RMM:   9    -0.115364233090E+03   -0.16539E-04   -0.69515E-06    45   0.131E-02    0.443E-03
RMM:  10    -0.115364273732E+03   -0.40642E-04   -0.52007E-06    45   0.911E-03    0.707E-03
RMM:  11    -0.115364274391E+03   -0.65889E-06   -0.12690E-06    41   0.551E-03
  32 F= -.11562075E+03 E0= -.11562075E+03  d E =0.191051E+00
 BRION: g(F)=  0.117E-01 g(S)=  0.000E+00
 BRIONS problems: POTIM should be increased
 retain N=  1 mean eig=26.55
 eig:  26.547
 bond charge predicted
       N       E                     dE             d eps       ncg     rms          rms(c)
DAV:   1    -0.115412885075E+03   -0.48611E-01   -0.14825E+00    70   0.675E+00    0.261E-01
RMM:   2    -0.115414056607E+03   -0.11715E-02   -0.20843E-02    70   0.804E-01    0.159E-01
RMM:   3    -0.115414305011E+03   -0.24840E-03   -0.39548E-03    71   0.351E-01    0.497E-02
RMM:   4    -0.115414420083E+03   -0.11507E-03   -0.93021E-04    80   0.161E-01    0.272E-02
RMM:   5    -0.115414430387E+03   -0.10304E-04   -0.18149E-04    73   0.730E-02    0.123E-02
RMM:   6    -0.115414435607E+03   -0.52198E-05   -0.33798E-05    52   0.320E-02
  33 F= -.11567094E+03 E0= -.11567094E+03  d E =-.501903E-01
 BRION: g(F)=  0.117E-01 g(S)=  0.000E+00 retain N=  1 mean eig= 2.85
 eig:   2.853
 bond charge predicted
       N       E                     dE             d eps       ncg     rms          rms(c)
DAV:   1    -0.115386415783E+03    0.28015E-01   -0.50409E-01    70   0.389E+00    0.149E-01
RMM:   2    -0.115386814188E+03   -0.39841E-03   -0.73564E-03    70   0.472E-01    0.896E-02
RMM:   3    -0.115386909684E+03   -0.95496E-04   -0.13323E-03    71   0.205E-01    0.316E-02
RMM:   4    -0.115386950886E+03   -0.41202E-04   -0.30362E-04    78   0.943E-02    0.163E-02
RMM:   5    -0.115386956126E+03   -0.52398E-05   -0.61422E-05    59   0.427E-02
  34 F= -.11564345E+03 E0= -.11564345E+03  d E =0.274984E-01
 BRION: g(F)=  0.104E-01 g(S)=  0.000E+00 retain N=  1 mean eig= 2.10
 eig:   2.097
 bond charge predicted
       N       E                     dE             d eps       ncg     rms          rms(c)
DAV:   1    -0.115384500307E+03    0.24506E-02   -0.15316E-02    78   0.672E-01    0.277E-02
RMM:   2    -0.115384508920E+03   -0.86124E-05   -0.22840E-04    70   0.819E-02    0.157E-02
RMM:   3    -0.115384511850E+03   -0.29305E-05   -0.43900E-05    57   0.371E-02
  35 F= -.11564100E+03 E0= -.11564100E+03  d E =0.244775E-02
 BRION: g(F)=  0.103E-01 g(S)=  0.000E+00 retain N=  2 mean eig= 1.54
 eig:   2.573  0.502
 bond charge predicted
       N       E                     dE             d eps       ncg     rms          rms(c)
DAV:   1    -0.115347215729E+03    0.37293E-01   -0.98288E-01    70   0.535E+00    0.199E-01
RMM:   2    -0.115347979383E+03   -0.76365E-03   -0.14650E-02    70   0.658E-01    0.121E-01
RMM:   3    -0.115348166545E+03   -0.18716E-03   -0.25877E-03    71   0.287E-01    0.468E-02
RMM:   4    -0.115348245568E+03   -0.79023E-04   -0.59204E-04    74   0.134E-01    0.221E-02
RMM:   5    -0.115348260305E+03   -0.14737E-04   -0.13316E-04    75   0.627E-02    0.108E-02
RMM:   6    -0.115348264668E+03   -0.43633E-05   -0.20257E-05    48   0.255E-02
  36 F= -.11560471E+03 E0= -.11560471E+03  d E =0.362907E-01
 BRION: g(F)=  0.101E-01 g(S)=  0.000E+00 retain N=  2 mean eig= 3.09
 eig:   0.959  5.225
 bond charge predicted
       N       E                     dE             d eps       ncg     rms          rms(c)
DAV:   1    -0.115352837336E+03   -0.45770E-02   -0.17145E-02    92   0.737E-01    0.345E-02
RMM:   2    -0.115352848494E+03   -0.11158E-04   -0.28648E-04    70   0.907E-02    0.200E-02
RMM:   3    -0.115352851902E+03   -0.34088E-05   -0.46980E-05    58   0.385E-02
  37 F= -.11560931E+03 E0= -.11560931E+03  d E =-.459965E-02
 BRION: g(F)=  0.102E-01 g(S)=  0.000E+00 retain N=  1 mean eig= 0.56
 eig:   0.558
 bond charge predicted
       N       E                     dE             d eps       ncg     rms          rms(c)
DAV:   1    -0.115346662166E+03    0.61863E-02   -0.26554E-02    76   0.883E-01    0.348E-02
RMM:   2    -0.115346680604E+03   -0.18438E-04   -0.40021E-04    70   0.108E-01    0.200E-02
RMM:   3    -0.115346684429E+03   -0.38255E-05   -0.67035E-05    68   0.464E-02
  38 F= -.11560313E+03 E0= -.11560313E+03  d E =0.617557E-02
 BRION: g(F)=  0.972E-02 g(S)=  0.000E+00 retain N=  2 mean eig= 0.26
 eig:   0.507  0.014
 bond charge predicted
       N       E                     dE             d eps       ncg     rms          rms(c)
DAV:   1    -0.115342940026E+03    0.37406E-02   -0.11998E-02    70   0.593E-01    0.228E-02
RMM:   2    -0.115342950126E+03   -0.10101E-04   -0.19442E-04    70   0.760E-02    0.147E-02
RMM:   3    -0.115342953689E+03   -0.35626E-05   -0.35905E-05    54   0.341E-02
  39 F= -.11559940E+03 E0= -.11559940E+03  d E =0.373667E-02
 BRION: g(F)=  0.964E-02 g(S)=  0.000E+00 retain N=  2 mean eig= 0.62
 eig:   0.619  0.619
 bond charge predicted
       N       E                     dE             d eps       ncg     rms          rms(c)
DAV:   1    -0.115334303069E+03    0.86471E-02   -0.55496E-02    70   0.127E+00    0.475E-02
RMM:   2    -0.115334345085E+03   -0.42016E-04   -0.84246E-04    70   0.159E-01    0.292E-02
RMM:   3    -0.115334356993E+03   -0.11908E-04   -0.15369E-04    71   0.703E-02    0.109E-02
RMM:   4    -0.115334362118E+03   -0.51250E-05   -0.35343E-05    56   0.330E-02
  40 F= -.11559080E+03 E0= -.11559080E+03  d E =0.859601E-02
 BRION: g(F)=  0.957E-02 g(S)=  0.000E+00 retain N=  2 mean eig= 1.26
 eig:   1.263  1.263
 bond charge predicted
       N       E                     dE             d eps       ncg     rms          rms(c)
DAV:   1    -0.115323674891E+03    0.10682E-01   -0.85027E-02    70   0.158E+00    0.608E-02
RMM:   2    -0.115323729328E+03   -0.54438E-04   -0.12746E-03    70   0.195E-01    0.364E-02
RMM:   3    -0.115323744094E+03   -0.14766E-04   -0.23059E-04    71   0.858E-02    0.152E-02
RMM:   4    -0.115323752064E+03   -0.79698E-05   -0.56852E-05    61   0.406E-02
  41 F= -.11558017E+03 E0= -.11558017E+03  d E =0.106259E-01
 BRION: g(F)=  0.955E-02 g(S)=  0.000E+00 retain N=  3 mean eig= 2.82
 eig:   3.841  3.841  0.769
 bond charge predicted
       N       E                     dE             d eps       ncg     rms          rms(c)
DAV:   1    -0.115221083183E+03    0.10266E+00   -0.58795E+00    70   0.131E+01    0.493E-01
RMM:   2    -0.115225626445E+03   -0.45433E-02   -0.85609E-02    70   0.160E+00    0.292E-01
RMM:   3    -0.115226386380E+03   -0.75993E-03   -0.15366E-02    71   0.700E-01    0.116E-01
RMM:   4    -0.115226850248E+03   -0.46387E-03   -0.35757E-03    75   0.325E-01    0.561E-02
RMM:   5    -0.115226935998E+03   -0.85750E-04   -0.77033E-04    77   0.151E-01    0.261E-02
RMM:   6    -0.115226959729E+03   -0.23731E-04   -0.13197E-04    66   0.621E-02    0.114E-02
RMM:   7    -0.115226970927E+03   -0.11198E-04   -0.48010E-05    60   0.337E-02    0.108E-02
RMM:   8    -0.115226988626E+03   -0.17699E-04   -0.13322E-05    46   0.193E-02    0.374E-03
RMM:   9    -0.115226990733E+03   -0.21066E-05   -0.29310E-06    45   0.898E-03
  42 F= -.11548335E+03 E0= -.11548335E+03  d E =0.968259E-01
 BRION: g(F)=  0.861E-02 g(S)=  0.000E+00
 BRIONS problems: POTIM should be increased
 retain N=  1 mean eig=14.05
 eig:  14.053
 bond charge predicted
       N       E                     dE             d eps       ncg     rms          rms(c)
DAV:   1    -0.115214495448E+03    0.12493E-01   -0.64286E-02    92   0.137E+00    0.519E-02
RMM:   2    -0.115214536464E+03   -0.41016E-04   -0.92433E-04    70   0.168E-01    0.312E-02
RMM:   3    -0.115214550261E+03   -0.13797E-04   -0.17431E-04    70   0.745E-02    0.102E-02
RMM:   4    -0.115214557482E+03   -0.72214E-05   -0.39191E-05    55   0.348E-02
  43 F= -.11547091E+03 E0= -.11547091E+03  d E =0.124367E-01
 BRION: g(F)=  0.852E-02 g(S)=  0.000E+00 retain N=  1 mean eig= 0.99
 eig:   0.989
 bond charge predicted
       N       E                     dE             d eps       ncg     rms          rms(c)
DAV:   1    -0.115213738845E+03    0.81142E-03   -0.81166E-04    92   0.164E-01    0.811E-03
RMM:   2    -0.115213740581E+03   -0.17365E-05   -0.12828E-05    45   0.197E-02
  44 F= -.11547009E+03 E0= -.11547009E+03  d E =0.816174E-03
 BRION: g(F)=  0.840E-02 g(S)=  0.000E+00 retain N=  1 mean eig= 0.48
 eig:   0.477
 bond charge predicted
       N       E                     dE             d eps       ncg     rms          rms(c)
DAV:   1    -0.115208440295E+03    0.52986E-02   -0.91713E-03    70   0.522E-01    0.205E-02
RMM:   2    -0.115208446874E+03   -0.65794E-05   -0.13150E-04    70   0.640E-02    0.125E-02
RMM:   3    -0.115208449654E+03   -0.27797E-05   -0.25983E-05    48   0.285E-02
  45 F= -.11546480E+03 E0= -.11546480E+03  d E =0.529226E-02
 BRION: g(F)=  0.824E-02 g(S)=  0.000E+00 retain N=  1 mean eig= 3.12
 eig:   3.117
 bond charge predicted
       N       E                     dE             d eps       ncg     rms          rms(c)
DAV:   1    -0.115188821005E+03    0.19626E-01   -0.11871E-01    70   0.188E+00    0.720E-02
RMM:   2    -0.115188902839E+03   -0.81833E-04   -0.17066E-03    70   0.230E-01    0.441E-02
RMM:   3    -0.115188924130E+03   -0.21291E-04   -0.33593E-04    71   0.102E-01    0.137E-02
RMM:   4    -0.115188933558E+03   -0.94285E-05   -0.72215E-05    70   0.471E-02
  46 F= -.11544528E+03 E0= -.11544528E+03  d E =0.195178E-01
 BRION: g(F)=  0.824E-02 g(S)=  0.000E+00 retain N=  2 mean eig= 7.55
 eig:   7.548  7.548
 bond charge predicted
       N       E                     dE             d eps       ncg     rms          rms(c)
DAV:   1    -0.114963296890E+03    0.22563E+00   -0.12551E+01    70   0.193E+01    0.765E-01
RMM:   2    -0.114972822163E+03   -0.95253E-02   -0.17899E-01    70   0.235E+00    0.443E-01
RMM:   3    -0.114973999693E+03   -0.11775E-02   -0.33472E-02    71   0.103E+00    0.181E-01
RMM:   4    -0.114974896444E+03   -0.89675E-03   -0.76000E-03    76   0.479E-01    0.907E-02
RMM:   5    -0.114975064900E+03   -0.16846E-03   -0.17393E-03    78   0.225E-01    0.505E-02
RMM:   6    -0.114975105363E+03   -0.40463E-04   -0.27147E-04    73   0.911E-02    0.175E-02
RMM:   7    -0.114975119973E+03   -0.14610E-04   -0.10223E-04    69   0.498E-02    0.173E-02
RMM:   8    -0.114975143168E+03   -0.23194E-04   -0.30920E-05    50   0.270E-02    0.493E-03
RMM:   9    -0.114975147980E+03   -0.48121E-05   -0.51739E-06    45   0.115E-02
  47 F= -.11523151E+03 E0= -.11523151E+03  d E =0.213775E+00
 BRION: g(F)=  0.702E-02 g(S)=  0.000E+00
 BRIONS problems: POTIM should be increased
 retain N=  1 mean eig=24.90
 eig:  24.901
 bond charge predicted
       N       E                     dE             d eps       ncg     rms          rms(c)
DAV:   1    -0.115015736390E+03   -0.40593E-01   -0.41924E-01    70   0.353E+00    0.135E-01
RMM:   2    -0.115016044265E+03   -0.30788E-03   -0.58240E-03    70   0.425E-01    0.814E-02
RMM:   3    -0.115016116839E+03   -0.72574E-04   -0.10171E-03    70   0.184E-01    0.287E-02
RMM:   4    -0.115016156402E+03   -0.39563E-04   -0.26702E-04    76   0.878E-02    0.134E-02
RMM:   5    -0.115016163434E+03   -0.70315E-05   -0.52138E-05    58   0.401E-02
  48 F= -.11527252E+03 E0= -.11527252E+03  d E =-.410068E-01
 BRION: g(F)=  0.710E-02 g(S)=  0.000E+00 retain N=  1 mean eig= 1.44
 eig:   1.444
 bond charge predicted
       N       E                     dE             d eps       ncg     rms          rms(c)
DAV:   1    -0.114992089443E+03    0.24067E-01   -0.15025E-01    73   0.210E+00    0.783E-02
RMM:   2    -0.114992189665E+03   -0.10022E-03   -0.20400E-03    70   0.250E-01    0.476E-02
RMM:   3    -0.114992217566E+03   -0.27902E-04   -0.36717E-04    71   0.108E-01    0.161E-02
RMM:   4    -0.114992228904E+03   -0.11338E-04   -0.79823E-05    69   0.498E-02    0.775E-03
RMM:   5    -0.114992230683E+03   -0.17786E-05   -0.16819E-05    47   0.235E-02
  49 F= -.11524858E+03 E0= -.11524858E+03  d E =0.239328E-01
 BRION: g(F)=  0.632E-02 g(S)=  0.000E+00 retain N=  1 mean eig= 1.90
 eig:   1.901
 bond charge predicted
       N       E                     dE             d eps       ncg     rms          rms(c)
DAV:   1    -0.114985558739E+03    0.66702E-02   -0.14797E-02    92   0.654E-01    0.239E-02
RMM:   2    -0.114985567872E+03   -0.91339E-05   -0.21484E-04    70   0.813E-02    0.146E-02
RMM:   3    -0.114985570542E+03   -0.26696E-05   -0.42320E-05    60   0.368E-02
  50 F= -.11524192E+03 E0= -.11524192E+03  d E =0.666147E-02
 BRION: g(F)=  0.631E-02 g(S)=  0.000E+00 retain N=  2 mean eig= 1.60
 eig:   1.596  1.596
 bond charge predicted
       N       E                     dE             d eps       ncg     rms          rms(c)
DAV:   1    -0.114964765256E+03    0.20803E-01   -0.11900E-01    70   0.186E+00    0.677E-02
RMM:   2    -0.114964849628E+03   -0.84372E-04   -0.16999E-03    70   0.228E-01    0.422E-02
RMM:   3    -0.114964873224E+03   -0.23596E-04   -0.33016E-04    71   0.102E-01    0.123E-02
RMM:   4    -0.114964882340E+03   -0.91160E-05   -0.73851E-05    68   0.470E-02
  51 F= -.11522124E+03 E0= -.11522124E+03  d E =0.206855E-01
 BRION: g(F)=  0.621E-02 g(S)=  0.000E+00 retain N=  2 mean eig= 2.65
 eig:   1.794  3.503
 bond charge predicted
       N       E                     dE             d eps       ncg     rms          rms(c)
DAV:   1    -0.114958796056E+03    0.60772E-02   -0.14784E-02    92   0.660E-01    0.253E-02
RMM:   2    -0.114958805795E+03   -0.97389E-05   -0.23531E-04    70   0.844E-02    0.160E-02
RMM:   3    -0.114958808843E+03   -0.30486E-05   -0.43502E-05    54   0.370E-02
  52 F= -.11521516E+03 E0= -.11521516E+03  d E =0.607853E-02
 BRION: g(F)=  0.625E-02 g(S)=  0.000E+00 retain N=  2 mean eig= 1.65
 eig:   2.797  0.513
 bond charge predicted
       N       E                     dE             d eps       ncg     rms          rms(c)
DAV:   1    -0.114947273047E+03    0.11533E-01   -0.37341E-02    70   0.104E+00    0.380E-02
RMM:   2    -0.114947299542E+03   -0.26495E-04   -0.54002E-04    70   0.129E-01    0.240E-02
RMM:   3    -0.114947307852E+03   -0.83100E-05   -0.10499E-04    71   0.575E-02    0.704E-03
RMM:   4    -0.114947311070E+03   -0.32180E-05   -0.21914E-05    48   0.266E-02
  53 F= -.11520367E+03 E0= -.11520367E+03  d E =0.114922E-01
 BRION: g(F)=  0.605E-02 g(S)=  0.000E+00 retain N=  3 mean eig= 5.00
 eig:   6.971  6.971  1.050
 bond charge predicted
       N       E                     dE             d eps       ncg     rms          rms(c)
DAV:   1    -0.114673037659E+03    0.27427E+00   -0.17727E+01    70   0.226E+01    0.850E-01
RMM:   2    -0.114686714242E+03   -0.13677E-01   -0.24845E-01    70   0.274E+00    0.499E-01
RMM:   3    -0.114688332190E+03   -0.16179E-02   -0.45928E-02    71   0.120E+00    0.196E-01
RMM:   4    -0.114689570676E+03   -0.12385E-02   -0.11023E-02    75   0.564E-01    0.921E-02
RMM:   5    -0.114689771308E+03   -0.20063E-03   -0.23693E-03    79   0.262E-01    0.567E-02
RMM:   6    -0.114689825840E+03   -0.54531E-04   -0.41077E-04    78   0.106E-01    0.228E-02
RMM:   7    -0.114689839430E+03   -0.13590E-04   -0.13764E-04    71   0.544E-02    0.221E-02
RMM:   8    -0.114689866295E+03   -0.26865E-04   -0.39703E-05    55   0.300E-02    0.858E-03
RMM:   9    -0.114689870347E+03   -0.40520E-05   -0.56162E-06    45   0.117E-02
  54 F= -.11494649E+03 E0= -.11494649E+03  d E =0.257178E+00
 BRION: g(F)=  0.706E-02 g(S)=  0.000E+00
 BRIONS problems: POTIM should be increased
 retain N=  1 mean eig=16.83
 eig:  16.829
 bond charge predicted
       N       E                     dE             d eps       ncg     rms          rms(c)
DAV:   1    -0.114849025422E+03   -0.15916E+00   -0.72512E+00    70   0.145E+01    0.540E-01
RMM:   2    -0.114854885088E+03   -0.58597E-02   -0.10209E-01    70   0.176E+00    0.319E-01
RMM:   3    -0.114855627703E+03   -0.74262E-03   -0.17955E-02    71   0.766E-01    0.124E-01
RMM:   4    -0.114856145335E+03   -0.51763E-03   -0.43675E-03    74   0.361E-01    0.467E-02
RMM:   5    -0.114856233648E+03   -0.88313E-04   -0.98378E-04    80   0.169E-01    0.238E-02
RMM:   6    -0.114856246597E+03   -0.12948E-04   -0.15142E-04    69   0.654E-02    0.120E-02
RMM:   7    -0.114856251081E+03   -0.44844E-05   -0.32479E-05    52   0.276E-02
  55 F= -.11511265E+03 E0= -.11511265E+03  d E =-.166161E+00
 BRION: g(F)=  0.547E-02 g(S)=  0.000E+00
 BRIONS problems: POTIM should be increased
 retain N=  1 mean eig= 8.79
 eig:   8.786
 bond charge predicted
       N       E                     dE             d eps       ncg     rms          rms(c)
DAV:   1    -0.114821425233E+03    0.34821E-01   -0.32193E-01    76   0.305E+00    0.109E-01
RMM:   2    -0.114821642183E+03   -0.21695E-03   -0.43824E-03    70   0.364E-01    0.671E-02
RMM:   3    -0.114821700237E+03   -0.58054E-04   -0.82768E-04    71   0.161E-01    0.209E-02
RMM:   4    -0.114821728611E+03   -0.28375E-04   -0.18510E-04    75   0.743E-02    0.987E-03
RMM:   5    -0.114821734574E+03   -0.59626E-05   -0.37031E-05    51   0.344E-02
  56 F= -.11507816E+03 E0= -.11507816E+03  d E =0.344843E-01
 BRION: g(F)=  0.520E-02 g(S)=  0.000E+00
 BRIONS problems: POTIM should be increased
 retain N=  1 mean eig= 8.60
 eig:   8.603
 bond charge predicted
       N       E                     dE             d eps       ncg     rms          rms(c)
DAV:   1    -0.114806105975E+03    0.15623E-01   -0.67104E-02    73   0.139E+00    0.503E-02
RMM:   2    -0.114806151342E+03   -0.45367E-04   -0.95664E-04    70   0.170E-01    0.308E-02
RMM:   3    -0.114806163542E+03   -0.12200E-04   -0.18346E-04    71   0.760E-02    0.106E-02
RMM:   4    -0.114806169521E+03   -0.59791E-05   -0.42646E-05    54   0.358E-02
  57 F= -.11506262E+03 E0= -.11506262E+03  d E =0.155448E-01
 BRION: g(F)=  0.521E-02 g(S)=  0.000E+00 retain N=  1 mean eig= 1.38
 eig:   1.384
 bond charge predicted
       N       E                     dE             d eps       ncg     rms          rms(c)
DAV:   1    -0.114809877586E+03   -0.37140E-02   -0.41131E-03    78   0.349E-01    0.131E-02
RMM:   2    -0.114809880497E+03   -0.29111E-05   -0.60466E-05    60   0.422E-02
  58 F= -.11506633E+03 E0= -.11506633E+03  d E =-.370935E-02
 BRION: g(F)=  0.522E-02 g(S)=  0.000E+00 retain N=  1 mean eig= 0.73
 eig:   0.731
 bond charge predicted
       N       E                     dE             d eps       ncg     rms          rms(c)
DAV:   1    -0.114803779059E+03    0.60985E-02   -0.10885E-02    76   0.557E-01    0.182E-02
RMM:   2    -0.114803787364E+03   -0.83053E-05   -0.14479E-04    69   0.663E-02    0.109E-02
RMM:   3    -0.114803788899E+03   -0.15345E-05   -0.25266E-05    51   0.286E-02
  59 F= -.11506025E+03 E0= -.11506025E+03  d E =0.608177E-02
 BRION: g(F)=  0.505E-02 g(S)=  0.000E+00
 BRIONS problems: POTIM should be increased
 retain N=  1 mean eig=11.15
 eig:  11.150
 bond charge predicted
       N       E                     dE             d eps       ncg     rms          rms(c)
DAV:   1    -0.114760184987E+03    0.43602E-01   -0.53110E-01    70   0.391E+00    0.139E-01
RMM:   2    -0.114760557714E+03   -0.37273E-03   -0.73629E-03    70   0.469E-01    0.851E-02
RMM:   3    -0.114760634759E+03   -0.77045E-04   -0.13756E-03    71   0.208E-01    0.296E-02
RMM:   4    -0.114760675433E+03   -0.40675E-04   -0.32182E-04    76   0.968E-02    0.141E-02
RMM:   5    -0.114760680592E+03   -0.51581E-05   -0.65501E-05    62   0.453E-02
  60 F= -.11501722E+03 E0= -.11501722E+03  d E =0.430256E-01
 BRION: g(F)=  0.499E-02 g(S)=  0.000E+00 retain N=  1 mean eig= 4.79
 eig:   4.791
 bond charge predicted
       N       E                     dE             d eps       ncg     rms          rms(c)
DAV:   1    -0.114775467960E+03   -0.14793E-01   -0.61546E-02    70   0.133E+00    0.472E-02
RMM:   2    -0.114775509947E+03   -0.41987E-04   -0.82446E-04    70   0.157E-01    0.287E-02
RMM:   3    -0.114775519680E+03   -0.97327E-05   -0.13555E-04    70   0.673E-02    0.112E-02
RMM:   4    -0.114775525596E+03   -0.59158E-05   -0.36550E-05    52   0.322E-02
  61 F= -.11503204E+03 E0= -.11503204E+03  d E =-.148190E-01
 BRION: g(F)=  0.504E-02 g(S)=  0.000E+00 retain N=  1 mean eig= 0.95
 eig:   0.952
 bond charge predicted
       N       E                     dE             d eps       ncg     rms          rms(c)
DAV:   1    -0.114763875478E+03    0.11644E-01   -0.39503E-02    70   0.107E+00    0.374E-02
RMM:   2    -0.114763901204E+03   -0.25725E-04   -0.52507E-04    70   0.126E-01    0.223E-02
RMM:   3    -0.114763906686E+03   -0.54825E-05   -0.90541E-05    70   0.548E-02
  62 F= -.11502045E+03 E0= -.11502045E+03  d E =0.115950E-01
 BRION: g(F)=  0.475E-02 g(S)=  0.000E+00 retain N=  1 mean eig= 5.27
 eig:   5.265
 bond charge predicted
       N       E                     dE             d eps       ncg     rms          rms(c)
DAV:   1    -0.114735053609E+03    0.28848E-01   -0.24317E-01    70   0.265E+00    0.937E-02
RMM:   2    -0.114735235635E+03   -0.18203E-03   -0.34459E-03    70   0.322E-01    0.581E-02
RMM:   3    -0.114735280491E+03   -0.44856E-04   -0.64355E-04    71   0.143E-01    0.199E-02
RMM:   4    -0.114735299821E+03   -0.19330E-04   -0.15424E-04    75   0.666E-02    0.909E-03
RMM:   5    -0.114735301983E+03   -0.21618E-05   -0.27887E-05    49   0.305E-02
  63 F= -.11499191E+03 E0= -.11499191E+03  d E =0.285330E-01
 BRION: g(F)=  0.468E-02 g(S)=  0.000E+00 retain N=  1 mean eig= 7.40
 eig:   7.397
 bond charge predicted
       N       E                     dE             d eps       ncg     rms          rms(c)
DAV:   1    -0.114738534605E+03   -0.32348E-02   -0.31023E-03    92   0.303E-01    0.123E-02
RMM:   2    -0.114738536455E+03   -0.18506E-05   -0.45758E-05    56   0.369E-02
  64 F= -.11499514E+03 E0= -.11499514E+03  d E =-.322315E-02
 BRION: g(F)=  0.478E-02 g(S)=  0.000E+00 retain N=  1 mean eig= 0.47
 eig:   0.473
 bond charge predicted
       N       E                     dE             d eps       ncg     rms          rms(c)
DAV:   1    -0.114733198764E+03    0.53358E-02   -0.90514E-03    76   0.513E-01    0.161E-02
RMM:   2    -0.114733206785E+03   -0.80206E-05   -0.12263E-04    67   0.610E-02    0.954E-03
RMM:   3    -0.114733208586E+03   -0.18018E-05   -0.19842E-05    47   0.258E-02
  65 F= -.11498982E+03 E0= -.11498982E+03  d E =0.531197E-02
 BRION: g(F)=  0.443E-02 g(S)=  0.000E+00 retain N=  1 mean eig= 0.92
 eig:   0.920
 bond charge predicted
       N       E                     dE             d eps       ncg     rms          rms(c)
DAV:   1    -0.114727431171E+03    0.57756E-02   -0.11351E-02    76   0.579E-01    0.213E-02
RMM:   2    -0.114727440062E+03   -0.88903E-05   -0.16841E-04    70   0.715E-02    0.130E-02
RMM:   3    -0.114727443041E+03   -0.29791E-05   -0.32574E-05    51   0.319E-02
  66 F= -.11498407E+03 E0= -.11498407E+03  d E =0.574945E-02
 BRION: g(F)=  0.445E-02 g(S)=  0.000E+00 retain N=  2 mean eig= 1.84
 eig:   1.843  1.843
 bond charge predicted
       N       E                     dE             d eps       ncg     rms          rms(c)
DAV:   1    -0.114678924688E+03    0.48515E-01   -0.75582E-01    70   0.471E+00    0.168E-01
RMM:   2    -0.114679491688E+03   -0.56700E-03   -0.10610E-02    70   0.565E-01    0.102E-01
RMM:   3    -0.114679614314E+03   -0.12263E-03   -0.19161E-03    71   0.249E-01    0.376E-02
RMM:   4    -0.114679674048E+03   -0.59734E-04   -0.46288E-04    76   0.116E-01    0.168E-02
RMM:   5    -0.114679681969E+03   -0.79213E-05   -0.94743E-05    66   0.539E-02
  67 F= -.11493647E+03 E0= -.11493647E+03  d E =0.476059E-01
 BRION: g(F)=  0.437E-02 g(S)=  0.000E+00 retain N=  1 mean eig= 6.52
 eig:   6.522
 bond charge predicted
       N       E                     dE             d eps       ncg     rms          rms(c)
DAV:   1    -0.114696497345E+03   -0.16823E-01   -0.92387E-02    70   0.164E+00    0.578E-02
RMM:   2    -0.114696564647E+03   -0.67302E-04   -0.12370E-03    70   0.193E-01    0.350E-02
RMM:   3    -0.114696582449E+03   -0.17802E-04   -0.20233E-04    70   0.827E-02    0.132E-02
RMM:   4    -0.114696591316E+03   -0.88668E-05   -0.53983E-05    61   0.389E-02
  68 F= -.11495332E+03 E0= -.11495332E+03  d E =-.168531E-01
 BRION: g(F)=  0.445E-02 g(S)=  0.000E+00 retain N=  1 mean eig= 0.88
 eig:   0.883
 bond charge predicted
       N       E                     dE             d eps       ncg     rms          rms(c)
DAV:   1    -0.114684504741E+03    0.12078E-01   -0.49684E-02    73   0.121E+00    0.432E-02
RMM:   2    -0.114684539051E+03   -0.34310E-04   -0.67146E-04    70   0.142E-01    0.252E-02
RMM:   3    -0.114684547154E+03   -0.81028E-05   -0.11242E-04    70   0.616E-02    0.962E-03
RMM:   4    -0.114684551441E+03   -0.42868E-05   -0.29728E-05    50   0.295E-02
  69 F= -.11494132E+03 E0= -.11494132E+03  d E =0.120000E-01
 BRION: g(F)=  0.405E-02 g(S)=  0.000E+00 retain N=  2 mean eig= 4.15
 eig:   1.036  7.264
 bond charge predicted
       N       E                     dE             d eps       ncg     rms          rms(c)
DAV:   1    -0.114670043958E+03    0.14503E-01   -0.74284E-02    76   0.148E+00    0.535E-02
RMM:   2    -0.114670099452E+03   -0.55494E-04   -0.10690E-03    70   0.180E-01    0.328E-02
RMM:   3    -0.114670114934E+03   -0.15482E-04   -0.18963E-04    71   0.786E-02    0.121E-02
RMM:   4    -0.114670120849E+03   -0.59145E-05   -0.43978E-05    56   0.362E-02
  70 F= -.11492695E+03 E0= -.11492695E+03  d E =0.143752E-01
 BRION: g(F)=  0.410E-02 g(S)=  0.000E+00 retain N=  2 mean eig= 2.62
 eig:   2.622  2.622
 bond charge predicted
       N       E                     dE             d eps       ncg     rms          rms(c)
DAV:   1    -0.114656241904E+03    0.13873E-01   -0.67331E-02    76   0.141E+00    0.509E-02
RMM:   2    -0.114656292426E+03   -0.50523E-04   -0.97763E-04    70   0.171E-01    0.310E-02
RMM:   3    -0.114656306102E+03   -0.13675E-04   -0.17303E-04    71   0.749E-02    0.128E-02
RMM:   4    -0.114656311775E+03   -0.56735E-05   -0.42138E-05    56   0.348E-02
  71 F= -.11491319E+03 E0= -.11491319E+03  d E =0.137570E-01
 BRION: g(F)=  0.394E-02 g(S)=  0.000E+00 retain N=  2 mean eig= 4.12
 eig:   4.121  4.121
 bond charge predicted
       N       E                     dE             d eps       ncg     rms          rms(c)
DAV:   1    -0.114633489240E+03    0.22817E-01   -0.18897E-01    70   0.236E+00    0.848E-02
RMM:   2    -0.114633632766E+03   -0.14353E-03   -0.27102E-03    70   0.285E-01    0.516E-02
RMM:   3    -0.114633669155E+03   -0.36388E-04   -0.46999E-04    71   0.124E-01    0.206E-02
RMM:   4    -0.114633685546E+03   -0.16391E-04   -0.12001E-04    74   0.581E-02    0.876E-03
RMM:   5    -0.114633687699E+03   -0.21537E-05   -0.21767E-05    48   0.269E-02
  72 F= -.11489066E+03 E0= -.11489066E+03  d E =0.225304E-01
 BRION: g(F)=  0.402E-02 g(S)=  0.000E+00 retain N=  2 mean eig= 1.63
 eig:   1.634  1.634
 bond charge predicted
       N       E                     dE             d eps       ncg     rms          rms(c)
DAV:   1    -0.114642505824E+03   -0.88203E-02   -0.27407E-02    76   0.898E-01    0.321E-02
RMM:   2    -0.114642526397E+03   -0.20573E-04   -0.37433E-04    70   0.106E-01    0.194E-02
RMM:   3    -0.114642532687E+03   -0.62904E-05   -0.59169E-05    65   0.449E-02
  73 F= -.11489947E+03 E0= -.11489947E+03  d E =-.880957E-02
 BRION: g(F)=  0.383E-02 g(S)=  0.000E+00 retain N=  2 mean eig= 1.42
 eig:   1.182  1.662
 bond charge predicted
       N       E                     dE             d eps       ncg     rms          rms(c)
DAV:   1    -0.114640871735E+03    0.16547E-02   -0.12580E-03    92   0.191E-01    0.803E-03
RMM:   2    -0.114640872818E+03   -0.10830E-05   -0.14840E-05    46   0.204E-02
  74 F= -.11489782E+03 E0= -.11489782E+03  d E =0.165335E-02
 BRION: g(F)=  0.371E-02 g(S)=  0.000E+00 retain N=  3 mean eig= 3.69
 eig:   0.616  5.224  5.224
 bond charge predicted
       N       E                     dE             d eps       ncg     rms          rms(c)
DAV:   1    -0.114512765081E+03    0.12811E+00   -0.59473E+00    70   0.133E+01    0.487E-01
RMM:   2    -0.114517712939E+03   -0.49479E-02   -0.84603E-02    70   0.159E+00    0.286E-01
RMM:   3    -0.114518532972E+03   -0.82003E-03   -0.14849E-02    72   0.690E-01    0.121E-01
RMM:   4    -0.114518936370E+03   -0.40340E-03   -0.33457E-03    75   0.314E-01    0.497E-02
RMM:   5    -0.114519012376E+03   -0.76006E-04   -0.74953E-04    79   0.148E-01    0.256E-02
RMM:   6    -0.114519025502E+03   -0.13126E-04   -0.11789E-04    65   0.580E-02    0.106E-02
RMM:   7    -0.114519035210E+03   -0.97078E-05   -0.33984E-05    51   0.289E-02
  75 F= -.11477668E+03 E0= -.11477668E+03  d E =0.121131E+00
 BRION: g(F)=  0.340E-02 g(S)=  0.000E+00
 BRIONS problems: POTIM should be increased
 retain N=  1 mean eig=24.62
 eig:  24.623
 bond charge predicted
       N       E                     dE             d eps       ncg     rms          rms(c)
DAV:   1    -0.114555301183E+03   -0.36276E-01   -0.53904E-01    70   0.399E+00    0.144E-01
RMM:   2    -0.114555722810E+03   -0.42163E-03   -0.76075E-03    70   0.477E-01    0.864E-02
RMM:   3    -0.114555833256E+03   -0.11045E-03   -0.13214E-03    72   0.206E-01    0.361E-02
RMM:   4    -0.114555878981E+03   -0.45725E-04   -0.28233E-04    73   0.930E-02    0.133E-02
RMM:   5    -0.114555890945E+03   -0.11965E-04   -0.63704E-05    63   0.440E-02    0.640E-03
RMM:   6    -0.114555895115E+03   -0.41700E-05   -0.10947E-05    45   0.186E-02
  76 F= -.11481330E+03 E0= -.11481330E+03  d E =-.366116E-01
 BRION: g(F)=  0.358E-02 g(S)=  0.000E+00 retain N=  1 mean eig= 1.77
 eig:   1.771
 bond charge predicted
       N       E                     dE             d eps       ncg     rms          rms(c)
DAV:   1    -0.114533367211E+03    0.22524E-01   -0.20620E-01    76   0.247E+00    0.887E-02
RMM:   2    -0.114533521889E+03   -0.15468E-03   -0.28952E-03    70   0.294E-01    0.530E-02
RMM:   3    -0.114533563165E+03   -0.41276E-04   -0.48553E-04    71   0.127E-01    0.216E-02
RMM:   4    -0.114533579874E+03   -0.16709E-04   -0.12315E-04    73   0.592E-02    0.827E-03
RMM:   5    -0.114533582062E+03   -0.21883E-05   -0.22222E-05    48   0.275E-02
  77 F= -.11479113E+03 E0= -.11479113E+03  d E =0.221621E-01
 BRION: g(F)=  0.292E-02 g(S)=  0.000E+00 retain N=  1 mean eig= 4.94
 eig:   4.940
 bond charge predicted
       N       E                     dE             d eps       ncg     rms          rms(c)
DAV:   1    -0.114514723810E+03    0.18856E-01   -0.15138E-01    76   0.212E+00    0.755E-02
RMM:   2    -0.114514838425E+03   -0.11461E-03   -0.21744E-03    70   0.255E-01    0.453E-02
RMM:   3    -0.114514870696E+03   -0.32272E-04   -0.38541E-04    72   0.111E-01    0.191E-02
RMM:   4    -0.114514881778E+03   -0.11081E-04   -0.85497E-05    70   0.504E-02    0.699E-03
RMM:   5    -0.114514883851E+03   -0.20734E-05   -0.16894E-05    47   0.240E-02
  78 F= -.11477258E+03 E0= -.11477258E+03  d E =0.185554E-01
 BRION: g(F)=  0.290E-02 g(S)=  0.000E+00
 BRIONS problems: POTIM should be increased
 retain N=  1 mean eig=10.93
 eig:  10.930
 bond charge predicted
       N       E                     dE             d eps       ncg     rms          rms(c)
DAV:   1    -0.114516801205E+03   -0.19194E-02   -0.12382E-03    92   0.196E-01    0.945E-03
RMM:   2    -0.114516802646E+03   -0.14416E-05   -0.19216E-05    49   0.241E-02
  79 F= -.11477448E+03 E0= -.11477448E+03  d E =-.190546E-02
 BRION: g(F)=  0.296E-02 g(S)=  0.000E+00 retain N=  1 mean eig= 0.45
 eig:   0.453
 bond charge predicted
       N       E                     dE             d eps       ncg     rms          rms(c)
DAV:   1    -0.114513487029E+03    0.33142E-02   -0.53853E-03    76   0.398E-01    0.134E-02
RMM:   2    -0.114513492301E+03   -0.52721E-05   -0.77009E-05    65   0.475E-02
  80 F= -.11477120E+03 E0= -.11477120E+03  d E =0.328245E-02
 BRION: g(F)=  0.276E-02 g(S)=  0.000E+00 retain N=  1 mean eig= 0.95
 eig:   0.953
 bond charge predicted
       N       E                     dE             d eps       ncg     rms          rms(c)
DAV:   1    -0.114509606210E+03    0.38808E-02   -0.80011E-03    76   0.488E-01    0.193E-02
RMM:   2    -0.114509611765E+03   -0.55552E-05   -0.12516E-04    68   0.603E-02    0.122E-02
RMM:   3    -0.114509614445E+03   -0.26794E-05   -0.23072E-05    49   0.269E-02
  81 F= -.11476736E+03 E0= -.11476736E+03  d E =0.384315E-02
 BRION: g(F)=  0.278E-02 g(S)=  0.000E+00 retain N=  2 mean eig= 2.03
 eig:   0.533  3.532
 bond charge predicted
       N       E                     dE             d eps       ncg     rms          rms(c)
DAV:   1    -0.114480562988E+03    0.29049E-01   -0.42391E-01    70   0.353E+00    0.123E-01
RMM:   2    -0.114480903164E+03   -0.34018E-03   -0.61004E-03    70   0.423E-01    0.747E-02
RMM:   3    -0.114480991826E+03   -0.88662E-04   -0.10598E-03    72   0.184E-01    0.319E-02
RMM:   4    -0.114481022260E+03   -0.30434E-04   -0.23317E-04    73   0.830E-02    0.110E-02
RMM:   5    -0.114481028001E+03   -0.57404E-05   -0.50372E-05    56   0.391E-02
  82 F= -.11473905E+03 E0= -.11473905E+03  d E =0.283120E-01
 BRION: g(F)=  0.271E-02 g(S)=  0.000E+00 retain N=  1 mean eig= 6.55
 eig:   6.546
 bond charge predicted
       N       E                     dE             d eps       ncg     rms          rms(c)
DAV:   1    -0.114489411919E+03   -0.83897E-02   -0.36079E-02    76   0.103E+00    0.367E-02
RMM:   2    -0.114489440467E+03   -0.28548E-04   -0.50510E-04    70   0.122E-01    0.220E-02
RMM:   3    -0.114489449033E+03   -0.85663E-05   -0.80976E-05    69   0.515E-02
  83 F= -.11474738E+03 E0= -.11474738E+03  d E =-.833549E-02
 BRION: g(F)=  0.281E-02 g(S)=  0.000E+00 retain N=  1 mean eig= 0.88
 eig:   0.877
 bond charge predicted
       N       E                     dE             d eps       ncg     rms          rms(c)
DAV:   1    -0.114482304792E+03    0.71357E-02   -0.27197E-02    76   0.891E-01    0.309E-02
RMM:   2    -0.114482325095E+03   -0.20303E-04   -0.36701E-04    70   0.103E-01    0.178E-02
RMM:   3    -0.114482329828E+03   -0.47333E-05   -0.56597E-05    63   0.433E-02
  84 F= -.11474033E+03 E0= -.11474033E+03  d E =0.704797E-02
 BRION: g(F)=  0.256E-02 g(S)=  0.000E+00 retain N=  1 mean eig= 3.17
 eig:   3.174
 bond charge predicted
       N       E                     dE             d eps       ncg     rms          rms(c)
DAV:   1    -0.114471381613E+03    0.10943E-01   -0.62535E-02    76   0.135E+00    0.471E-02
RMM:   2    -0.114471432231E+03   -0.50618E-04   -0.92285E-04    70   0.165E-01    0.293E-02
RMM:   3    -0.114471447830E+03   -0.15599E-04   -0.16406E-04    72   0.721E-02    0.126E-02
RMM:   4    -0.114471452676E+03   -0.48462E-05   -0.35985E-05    55   0.328E-02
  85 F= -.11472957E+03 E0= -.11472957E+03  d E =0.107627E-01
 BRION: g(F)=  0.256E-02 g(S)=  0.000E+00 retain N=  2 mean eig= 3.81
 eig:   3.811  3.811
 bond charge predicted
       N       E                     dE             d eps       ncg     rms          rms(c)
DAV:   1    -0.114452415194E+03    0.19033E-01   -0.18787E-01    76   0.235E+00    0.808E-02
RMM:   2    -0.114452564686E+03   -0.14949E-03   -0.27136E-03    70   0.282E-01    0.494E-02
RMM:   3    -0.114452605240E+03   -0.40554E-04   -0.46433E-04    72   0.122E-01    0.216E-02
RMM:   4    -0.114452618621E+03   -0.13382E-04   -0.10300E-04    72   0.550E-02    0.735E-03
RMM:   5    -0.114452621372E+03   -0.27503E-05   -0.20963E-05    49   0.256E-02
  86 F= -.11471095E+03 E0= -.11471095E+03  d E =0.186216E-01
 BRION: g(F)=  0.248E-02 g(S)=  0.000E+00 retain N=  1 mean eig= 3.02
 eig:   3.019
 bond charge predicted
       N       E                     dE             d eps       ncg     rms          rms(c)
DAV:   1    -0.114456306505E+03   -0.36879E-02   -0.76908E-03    84   0.478E-01    0.177E-02
RMM:   2    -0.114456313321E+03   -0.68161E-05   -0.11693E-04    67   0.576E-02    0.109E-02
RMM:   3    -0.114456315432E+03   -0.21106E-05   -0.16667E-05    48   0.235E-02
  87 F= -.11471460E+03 E0= -.11471460E+03  d E =-.365341E-02
 BRION: g(F)=  0.257E-02 g(S)=  0.000E+00 retain N=  2 mean eig= 2.00
 eig:   3.604  0.393
 bond charge predicted
       N       E                     dE             d eps       ncg     rms          rms(c)
DAV:   1    -0.114448917354E+03    0.73960E-02   -0.29431E-02    76   0.927E-01    0.319E-02
RMM:   2    -0.114448940259E+03   -0.22905E-04   -0.41350E-04    70   0.110E-01    0.189E-02
RMM:   3    -0.114448945785E+03   -0.55261E-05   -0.65398E-05    65   0.467E-02
  88 F= -.11470732E+03 E0= -.11470732E+03  d E =0.728467E-02
 BRION: g(F)=  0.235E-02 g(S)=  0.000E+00 retain N=  2 mean eig= 1.40
 eig:   0.450  2.342
 bond charge predicted
       N       E                     dE             d eps       ncg     rms          rms(c)
DAV:   1    -0.114446154095E+03    0.27862E-02   -0.41155E-03    76   0.349E-01    0.129E-02
RMM:   2    -0.114446158050E+03   -0.39553E-05   -0.68480E-05    62   0.453E-02
  89 F= -.11470456E+03 E0= -.11470456E+03  d E =0.275449E-02
 BRION: g(F)=  0.235E-02 g(S)=  0.000E+00 retain N=  2 mean eig= 1.14
 eig:   1.143  1.143
 bond charge predicted
       N       E                     dE             d eps       ncg     rms          rms(c)
DAV:   1    -0.114436430842E+03    0.97233E-02   -0.49498E-02    76   0.121E+00    0.432E-02
RMM:   2    -0.114436468681E+03   -0.37839E-04   -0.73337E-04    70   0.146E-01    0.270E-02
RMM:   3    -0.114436480061E+03   -0.11380E-04   -0.12620E-04    71   0.638E-02    0.113E-02
RMM:   4    -0.114436484302E+03   -0.42419E-05   -0.29866E-05    53   0.295E-02
  90 F= -.11469501E+03 E0= -.11469501E+03  d E =0.955437E-02
 BRION: g(F)=  0.231E-02 g(S)=  0.000E+00 retain N=  2 mean eig= 1.62
 eig:   1.621  1.621
 bond charge predicted
       N       E                     dE             d eps       ncg     rms          rms(c)
DAV:   1    -0.114437693948E+03   -0.12139E-02   -0.96871E-04    92   0.173E-01    0.837E-03
RMM:   2    -0.114437694944E+03   -0.99606E-06   -0.19171E-05    46   0.230E-02
  91 F= -.11469620E+03 E0= -.11469620E+03  d E =-.119418E-02
 BRION: g(F)=  0.236E-02 g(S)=  0.000E+00 retain N=  3 mean eig= 2.15
 eig:   2.381  2.029  2.029
 bond charge predicted
       N       E                     dE             d eps       ncg     rms          rms(c)
DAV:   1    -0.114248325261E+03    0.18937E+00   -0.16730E+01    70   0.221E+01    0.811E-01
RMM:   2    -0.114263419216E+03   -0.15094E-01   -0.24367E-01    70   0.266E+00    0.461E-01
RMM:   3    -0.114265773666E+03   -0.23545E-02   -0.41635E-02    73   0.114E+00    0.231E-01
RMM:   4    -0.114266548190E+03   -0.77452E-03   -0.80768E-03    73   0.504E-01    0.790E-02
RMM:   5    -0.114266812910E+03   -0.26472E-03   -0.21864E-03    81   0.242E-01    0.448E-02
RMM:   6    -0.114266850339E+03   -0.37429E-04   -0.29674E-04    76   0.956E-02    0.196E-02
RMM:   7    -0.114266874109E+03   -0.23770E-04   -0.74657E-05    58   0.440E-02    0.636E-03
RMM:   8    -0.114266896395E+03   -0.22286E-04   -0.13110E-05    46   0.174E-02    0.695E-03
RMM:   9    -0.114266924425E+03   -0.28030E-04   -0.45180E-06    45   0.985E-03    0.207E-03
RMM:  10    -0.114266935498E+03   -0.11073E-04   -0.16812E-06    41   0.599E-03    0.910E-04
RMM:  11    -0.114266969347E+03   -0.33849E-04   -0.36851E-06    41   0.608E-03    0.267E-03
RMM:  12    -0.114266976919E+03   -0.75726E-05   -0.11558E-06    30   0.397E-03
  92 F= -.11452839E+03 E0= -.11452839E+03  d E =0.167810E+00
 BRION: g(F)=  0.125E+01 g(S)=  0.000E+00 retain N=  3 mean eig= 1.25
 eig:   1.874  1.874  0.011
 bond charge predicted
       N       E                     dE             d eps       ncg     rms          rms(c)
DAV:   1    -0.114411958822E+03   -0.14499E+00   -0.15395E+01    70   0.212E+01    0.784E-01
RMM:   2    -0.114426481507E+03   -0.14523E-01   -0.22869E-01    70   0.259E+00    0.442E-01
RMM:   3    -0.114428737743E+03   -0.22562E-02   -0.38320E-02    73   0.110E+00    0.240E-01
RMM:   4    -0.114429387345E+03   -0.64960E-03   -0.74998E-03    71   0.493E-01    0.654E-02
RMM:   5    -0.114429616615E+03   -0.22927E-03   -0.20142E-03    80   0.238E-01    0.425E-02
RMM:   6    -0.114429649007E+03   -0.32392E-04   -0.31020E-04    77   0.968E-02    0.191E-02
RMM:   7    -0.114429668939E+03   -0.19932E-04   -0.75389E-05    57   0.429E-02    0.882E-03
RMM:   8    -0.114429693957E+03   -0.25018E-04   -0.94673E-06    45   0.149E-02    0.244E-03
RMM:   9    -0.114429709390E+03   -0.15433E-04   -0.35757E-06    45   0.883E-03    0.127E-03
RMM:  10    -0.114429738019E+03   -0.28629E-04   -0.35783E-06    45   0.693E-03    0.171E-03
RMM:  11    -0.114429745718E+03   -0.76987E-05   -0.11863E-06    34   0.437E-03
  93 F= -.11468836E+03 E0= -.11468836E+03  d E =-.159963E+00
 BRION: g(F)=  0.224E-02 g(S)=  0.000E+00 retain N=  1 mean eig= 1.22
 eig:   1.220
 bond charge predicted
       N       E                     dE             d eps       ncg     rms          rms(c)
DAV:   1    -0.114424079889E+03    0.56581E-02   -0.14187E-02    92   0.645E-01    0.222E-02
RMM:   2    -0.114424091775E+03   -0.11886E-04   -0.19885E-04    70   0.766E-02    0.134E-02
RMM:   3    -0.114424096604E+03   -0.48295E-05   -0.33455E-05    52   0.330E-02
  94 F= -.11468278E+03 E0= -.11468278E+03  d E =0.557424E-02
 BRION: g(F)=  0.217E-02 g(S)=  0.000E+00 retain N=  2 mean eig= 1.70
 eig:   1.699  1.699
 bond charge predicted
       N       E                     dE             d eps       ncg     rms          rms(c)
DAV:   1    -0.114418390052E+03    0.57017E-02   -0.14392E-02    76   0.650E-01    0.230E-02
RMM:   2    -0.114418401954E+03   -0.11901E-04   -0.21505E-04    70   0.802E-02    0.144E-02
RMM:   3    -0.114418406665E+03   -0.47118E-05   -0.39790E-05    55   0.353E-02
  95 F= -.11467717E+03 E0= -.11467717E+03  d E =0.561403E-02
 BRION: g(F)=  0.216E-02 g(S)=  0.000E+00 retain N=  3 mean eig= 4.93
 eig:   6.908  6.908  0.962
 bond charge predicted
       N       E                     dE             d eps       ncg     rms          rms(c)
DAV:   1    -0.114304800796E+03    0.11360E+00   -0.54462E+00    70   0.126E+01    0.440E-01
RMM:   2    -0.114309140720E+03   -0.43399E-02   -0.76285E-02    70   0.150E+00    0.262E-01
RMM:   3    -0.114309930474E+03   -0.78975E-03   -0.13304E-02    72   0.649E-01    0.117E-01
RMM:   4    -0.114310263840E+03   -0.33337E-03   -0.29016E-03    75   0.294E-01    0.414E-02
RMM:   5    -0.114310341168E+03   -0.77328E-04   -0.67280E-04    80   0.137E-01    0.227E-02
RMM:   6    -0.114310351867E+03   -0.10699E-04   -0.89230E-05    61   0.522E-02    0.736E-03
RMM:   7    -0.114310360760E+03   -0.88927E-05   -0.23763E-05    48   0.262E-02
  96 F= -.11457090E+03 E0= -.11457090E+03  d E =0.106264E+00
 BRION: g(F)=  0.178E-02 g(S)=  0.000E+00
 BRIONS problems: POTIM should be increased
 retain N=  1 mean eig=32.38
 eig:  32.378
 bond charge predicted
       N       E                     dE             d eps       ncg     rms          rms(c)
DAV:   1    -0.114322607218E+03   -0.12255E-01   -0.68596E-02    76   0.141E+00    0.473E-02
RMM:   2    -0.114322662175E+03   -0.54958E-04   -0.93552E-04    70   0.166E-01    0.286E-02
RMM:   3    -0.114322682770E+03   -0.20594E-04   -0.15514E-04    71   0.712E-02    0.129E-02
RMM:   4    -0.114322694049E+03   -0.11279E-04   -0.34382E-05    55   0.331E-02    0.422E-03
RMM:   5    -0.114322698828E+03   -0.47783E-05   -0.69660E-06    45   0.150E-02
  97 F= -.11458301E+03 E0= -.11458301E+03  d E =-.121076E-01
 BRION: g(F)=  0.182E-02 g(S)=  0.000E+00 retain N=  1 mean eig= 3.05
 eig:   3.046
 bond charge predicted
       N       E                     dE             d eps       ncg     rms          rms(c)
DAV:   1    -0.114314202855E+03    0.84912E-02   -0.37502E-02    76   0.105E+00    0.373E-02
RMM:   2    -0.114314230460E+03   -0.27604E-04   -0.51258E-04    70   0.123E-01    0.221E-02
RMM:   3    -0.114314238921E+03   -0.84608E-05   -0.85902E-05    70   0.524E-02
  98 F= -.11457471E+03 E0= -.11457471E+03  d E =0.829847E-02
 BRION: g(F)=  0.170E-02 g(S)=  0.000E+00
 BRIONS problems: POTIM should be increased
 retain N=  1 mean eig= 8.55
 eig:   8.550
 bond charge predicted
       N       E                     dE             d eps       ncg     rms          rms(c)
DAV:   1    -0.114300866346E+03    0.13364E-01   -0.10918E-01    76   0.180E+00    0.664E-02
RMM:   2    -0.114300949747E+03   -0.83401E-04   -0.15688E-03    70   0.215E-01    0.400E-02
RMM:   3    -0.114300976480E+03   -0.26733E-04   -0.28018E-04    72   0.938E-02    0.181E-02
RMM:   4    -0.114300985010E+03   -0.85298E-05   -0.61110E-05    61   0.426E-02
  99 F= -.11456172E+03 E0= -.11456172E+03  d E =0.129877E-01
 BRION: g(F)=  0.171E-02 g(S)=  0.000E+00 retain N=  1 mean eig= 6.24
 eig:   6.245
 bond charge predicted
       N       E                     dE             d eps       ncg     rms          rms(c)
DAV:   1    -0.114308387766E+03   -0.74113E-02   -0.26591E-02    76   0.881E-01    0.310E-02
RMM:   2    -0.114308406115E+03   -0.18349E-04   -0.35455E-04    70   0.102E-01    0.180E-02
RMM:   3    -0.114308411411E+03   -0.52962E-05   -0.58774E-05    65   0.438E-02
 100 F= -.11456901E+03 E0= -.11456901E+03  d E =-.728087E-02
 BRION: g(F)=  0.176E-02 g(S)=  0.000E+00 retain N=  1 mean eig= 1.45
 eig:   1.454
 bond charge predicted
       N       E                     dE             d eps       ncg     rms          rms(c)
DAV:   1    -0.114303733919E+03    0.46722E-02   -0.17119E-02    76   0.713E-01    0.270E-02
RMM:   2    -0.114303746653E+03   -0.12734E-04   -0.22904E-04    70   0.813E-02    0.149E-02
RMM:   3    -0.114303750110E+03   -0.34572E-05   -0.36399E-05    53   0.339E-02
 101 F= -.11456444E+03 E0= -.11456444E+03  d E =0.456532E-02
 BRION: g(F)=  0.165E-02 g(S)=  0.000E+00
 BRIONS problems: POTIM should be increased
 retain N=  1 mean eig=14.34
 eig:  14.337
 bond charge predicted
       N       E                     dE             d eps       ncg     rms          rms(c)
DAV:   1    -0.114282082625E+03    0.21664E-01   -0.39860E-01    70   0.345E+00    0.132E-01
RMM:   2    -0.114282390313E+03   -0.30769E-03   -0.56161E-03    70   0.405E-01    0.773E-02
RMM:   3    -0.114282480626E+03   -0.90313E-04   -0.96505E-04    72   0.174E-01    0.347E-02
RMM:   4    -0.114282508147E+03   -0.27520E-04   -0.20152E-04    73   0.777E-02    0.122E-02
RMM:   5    -0.114282513127E+03   -0.49803E-05   -0.41971E-05    54   0.360E-02
 102 F= -.11454366E+03 E0= -.11454366E+03  d E =0.207819E-01
 BRION: g(F)=  0.121E+01 g(S)=  0.000E+00 retain N=  1 mean eig= 0.12
 eig:   0.116
 bond charge predicted
       N       E                     dE             d eps       ncg     rms          rms(c)
DAV:   1    -0.114302512008E+03   -0.20004E-01   -0.34028E-01    70   0.318E+00    0.120E-01
RMM:   2    -0.114302774555E+03   -0.26255E-03   -0.46989E-03    70   0.370E-01    0.699E-02
RMM:   3    -0.114302850475E+03   -0.75920E-04   -0.78520E-04    72   0.157E-01    0.309E-02
RMM:   4    -0.114302875166E+03   -0.24691E-04   -0.15994E-04    73   0.698E-02    0.105E-02
RMM:   5    -0.114302879688E+03   -0.45227E-05   -0.32382E-05    53   0.318E-02
 103 F= -.11456359E+03 E0= -.11456359E+03  d E =-.199328E-01
 BRION: g(F)=  0.174E-02 g(S)=  0.000E+00 retain N=  1 mean eig= 0.12
 eig:   0.116
 bond charge predicted
       N       E                     dE             d eps       ncg     rms          rms(c)
DAV:   1    -0.114302104151E+03    0.77101E-03   -0.37169E-03    84   0.331E-01    0.145E-02
RMM:   2    -0.114302107241E+03   -0.30902E-05   -0.50156E-05    54   0.369E-02
 104 F= -.11456284E+03 E0= -.11456284E+03  d E =0.753287E-03
 BRION: g(F)=  0.167E-02 g(S)=  0.000E+00 retain N=  2 mean eig= 0.43
 eig:   0.123  0.737
 bond charge predicted
       N       E                     dE             d eps       ncg     rms          rms(c)
DAV:   1    -0.114301584187E+03    0.51996E-03   -0.16100E-03    92   0.221E-01    0.113E-02
RMM:   2    -0.114301585254E+03   -0.10670E-05   -0.26090E-05    48   0.267E-02
 105 F= -.11456233E+03 E0= -.11456233E+03  d E =0.508770E-03
 BRION: g(F)=  0.120E+01 g(S)=  0.000E+00 retain N=  2 mean eig= 0.37
 eig:   0.742  0.004
 bond charge predicted
       N       E                     dE             d eps       ncg     rms          rms(c)
DAV:   1    -0.114301772673E+03   -0.18849E-03   -0.30500E-05    76   0.305E-02    0.272E-03
RMM:   2    -0.114301772882E+03   -0.20921E-06   -0.60352E-07    26   0.504E-03
 106 F= -.11456251E+03 E0= -.11456251E+03  d E =-.183813E-03
 BRION: g(F)=  0.120E+01 g(S)=  0.000E+00 retain N=  3 mean eig= 1.08
 eig:   1.976  1.212  0.037
 bond charge predicted
       N       E                     dE             d eps       ncg     rms          rms(c)
DAV:   1    -0.114297491618E+03    0.42811E-02   -0.10662E-02    76   0.558E-01    0.199E-02
RMM:   2    -0.114297498783E+03   -0.71652E-05   -0.14643E-04    70   0.659E-02    0.121E-02
RMM:   3    -0.114297500792E+03   -0.20091E-05   -0.25100E-05    51   0.285E-02
 107 F= -.11455833E+03 E0= -.11455833E+03  d E =0.418187E-02
 BRION: g(F)=  0.120E+01 g(S)=  0.000E+00 retain N=  4 mean eig= 1.68
 eig:   2.906  2.906  0.892  0.035
 bond charge predicted
       N       E                     dE             d eps       ncg     rms          rms(c)
DAV:   1    -0.114293754470E+03    0.37443E-02   -0.76804E-03    76   0.474E-01    0.171E-02
RMM:   2    -0.114293759842E+03   -0.53713E-05   -0.11394E-04    68   0.584E-02    0.108E-02
RMM:   3    -0.114293761715E+03   -0.18737E-05   -0.21463E-05    47   0.259E-02
 108 F= -.11455467E+03 E0= -.11455467E+03  d E =0.366033E-02
 BRION: g(F)=  0.121E+01 g(S)=  0.000E+00 retain N=  5 mean eig= 3.55
 eig:   7.841  7.841  1.034  1.034  0.023
 bond charge predicted
       N       E                     dE             d eps       ncg     rms          rms(c)
DAV:   1    -0.114280689139E+03    0.13071E-01   -0.95024E-02    70   0.166E+00    0.582E-02
RMM:   2    -0.114280751581E+03   -0.62442E-04   -0.13199E-03    70   0.198E-01    0.358E-02
[...]
RMM:   3    -0.113913908343E+03   -0.51911E-05   -0.72035E-05    66   0.430E-02
 184 F= -.11419638E+03 E0= -.11419638E+03  d E =0.502331E-03
 BRION: g(F)=  0.580E-02 g(S)=  0.000E+00 retain N=  1 mean eig= 0.70
 eig:   0.703
 bond charge predicted
       N       E                     dE             d eps       ncg     rms          rms(c)
DAV:   1    -0.113913596208E+03    0.30694E-03   -0.38701E-02    70   0.101E+00    0.364E-02
RMM:   2    -0.113913608744E+03   -0.12537E-04   -0.43384E-04    70   0.111E-01    0.228E-02
RMM:   3    -0.113913613873E+03   -0.51289E-05   -0.97859E-05    66   0.513E-02
 185 F= -.11419596E+03 E0= -.11419596E+03  d E =0.411848E-03
 BRION: g(F)=  0.565E-02 g(S)=  0.000E+00 retain N=  2 mean eig= 2.34
 eig:   2.344  2.344
 bond charge predicted
       N       E                     dE             d eps       ncg     rms          rms(c)
DAV:   1    -0.113913823224E+03   -0.21448E-03   -0.61297E+00    70   0.127E+01    0.472E-01
RMM:   2    -0.113915992853E+03   -0.21696E-02   -0.69615E-02    70   0.139E+00    0.273E-01
RMM:   3    -0.113916270447E+03   -0.27759E-03   -0.15284E-02    73   0.622E-01    0.123E-01
RMM:   4    -0.113916619577E+03   -0.34913E-03   -0.33236E-03    77   0.285E-01    0.579E-02
RMM:   5    -0.113916691143E+03   -0.71565E-04   -0.60893E-04    77   0.130E-01    0.261E-02
RMM:   6    -0.113916713818E+03   -0.22675E-04   -0.13435E-04    66   0.534E-02    0.165E-02
RMM:   7    -0.113916728876E+03   -0.15058E-04   -0.14563E-05    45   0.185E-02    0.281E-03
RMM:   8    -0.113916738605E+03   -0.97297E-05   -0.48468E-06    45   0.108E-02
 186 F= -.11419751E+03 E0= -.11419751E+03  d E =-.154722E-02
 BRION: g(F)=  0.487E-02 g(S)=  0.000E+00
 BRIONS problems: POTIM should be increased
 retain N=  1 mean eig= 9.45
 eig:   9.454
 bond charge predicted
       N       E                     dE             d eps       ncg     rms          rms(c)
DAV:   1    -0.113916396034E+03    0.33284E-03   -0.13079E-01    70   0.187E+00    0.698E-02
RMM:   2    -0.113916437073E+03   -0.41039E-04   -0.14072E-03    70   0.202E-01    0.423E-02
RMM:   3    -0.113916463066E+03   -0.25993E-04   -0.30258E-04    71   0.909E-02    0.125E-02
RMM:   4    -0.113916477510E+03   -0.14444E-04   -0.74054E-05    61   0.420E-02    0.713E-03
RMM:   5    -0.113916483261E+03   -0.57518E-05   -0.12562E-05    46   0.194E-02
 187 F= -.11419749E+03 E0= -.11419749E+03  d E =0.187903E-04
 BRION: g(F)=  0.476E-02 g(S)=  0.000E+00 retain N=  1 mean eig= 1.27
 eig:   1.270
 bond charge predicted
       N       E                     dE             d eps       ncg     rms          rms(c)
DAV:   1    -0.113918339613E+03   -0.18621E-02   -0.99296E-02    76   0.162E+00    0.542E-02
RMM:   2    -0.113918362578E+03   -0.22965E-04   -0.10357E-03    70   0.168E-01    0.332E-02
RMM:   3    -0.113918372215E+03   -0.96369E-05   -0.24098E-04    72   0.765E-02    0.117E-02
RMM:   4    -0.113918378469E+03   -0.62540E-05   -0.49862E-05    56   0.345E-02
 188 F= -.11419917E+03 E0= -.11419917E+03  d E =-.167782E-02
 BRION: g(F)=  0.457E-02 g(S)=  0.000E+00 retain N=  2 mean eig= 1.95
 eig:   2.724  1.174
 bond charge predicted
       N       E                     dE             d eps       ncg     rms          rms(c)
DAV:   1    -0.113927005938E+03   -0.86337E-02   -0.32139E-01    70   0.313E+00    0.109E-01
RMM:   2    -0.113927089167E+03   -0.83228E-04   -0.33033E-03    70   0.306E-01    0.663E-02
RMM:   3    -0.113927143900E+03   -0.54733E-04   -0.91354E-04    73   0.142E-01    0.256E-02
RMM:   4    -0.113927162577E+03   -0.18677E-04   -0.14802E-04    75   0.622E-02    0.133E-02
RMM:   5    -0.113927166358E+03   -0.37812E-05   -0.26387E-05    51   0.284E-02
 189 F= -.11420760E+03 E0= -.11420760E+03  d E =-.843321E-02
 BRION: g(F)=  0.419E-02 g(S)=  0.000E+00 retain N=  3 mean eig= 2.79
 eig:   4.295  2.036  2.036
 bond charge predicted
       N       E                     dE             d eps       ncg     rms          rms(c)
DAV:   1    -0.113938036842E+03   -0.10874E-01   -0.51048E-01    70   0.393E+00    0.135E-01
RMM:   2    -0.113938177707E+03   -0.14087E-03   -0.52968E-03    70   0.387E-01    0.827E-02
RMM:   3    -0.113938259096E+03   -0.81389E-04   -0.14696E-03    73   0.180E-01    0.326E-02
RMM:   4    -0.113938291638E+03   -0.32542E-04   -0.23988E-04    77   0.793E-02    0.171E-02
RMM:   5    -0.113938302289E+03   -0.10651E-04   -0.47858E-05    57   0.368E-02    0.522E-03
RMM:   6    -0.113938308989E+03   -0.66999E-05   -0.94071E-06    46   0.158E-02
 190 F= -.11421827E+03 E0= -.11421827E+03  d E =-.106641E-01
 BRION: g(F)=  0.392E-02 g(S)=  0.000E+00 retain N=  4 mean eig= 3.50
 eig:   4.633  4.266  4.266  0.852
 bond charge predicted
       N       E                     dE             d eps       ncg     rms          rms(c)
DAV:   1    -0.113942670944E+03   -0.43687E-02   -0.65316E-02    76   0.146E+00    0.581E-02
RMM:   2    -0.113942684189E+03   -0.13246E-04   -0.65504E-04    70   0.141E-01    0.344E-02
RMM:   3    -0.113942702043E+03   -0.17854E-04   -0.17896E-04    72   0.659E-02    0.120E-02
RMM:   4    -0.113942710397E+03   -0.83539E-05   -0.38233E-05    52   0.300E-02
 191 F= -.11422252E+03 E0= -.11422252E+03  d E =-.425750E-02
 BRION: g(F)=  0.376E-02 g(S)=  0.000E+00 retain N=  3 mean eig= 3.11
 eig:   6.039  0.805  2.476
 bond charge predicted
       N       E                     dE             d eps       ncg     rms          rms(c)
DAV:   1    -0.113943515857E+03   -0.81381E-03   -0.31356E-03    92   0.322E-01    0.163E-02
RMM:   2    -0.113943519540E+03   -0.36828E-05   -0.44642E-05    59   0.379E-02
 192 F= -.11422332E+03 E0= -.11422332E+03  d E =-.796987E-03
 BRION: g(F)=  0.375E-02 g(S)=  0.000E+00 retain N=  3 mean eig= 1.50
 eig:   3.064  0.939  0.501
 bond charge predicted
       N       E                     dE             d eps       ncg     rms          rms(c)
DAV:   1    -0.113948246158E+03   -0.47303E-02   -0.82142E-02    70   0.163E+00    0.649E-02
RMM:   2    -0.113948263425E+03   -0.17266E-04   -0.81929E-04    70   0.157E-01    0.390E-02
RMM:   3    -0.113948285293E+03   -0.21868E-04   -0.23663E-04    74   0.737E-02    0.134E-02
RMM:   4    -0.113948291906E+03   -0.66131E-05   -0.37801E-05    56   0.321E-02
 193 F= -.11422792E+03 E0= -.11422792E+03  d E =-.459508E-02
 BRION: g(F)=  0.359E-02 g(S)=  0.000E+00 retain N=  3 mean eig= 1.14
 eig:   2.381  0.520  0.520
 bond charge predicted
       N       E                     dE             d eps       ncg     rms          rms(c)
DAV:   1    -0.113954726380E+03   -0.64411E-02   -0.16717E-01    70   0.236E+00    0.980E-02
RMM:   2    -0.113954769991E+03   -0.43611E-04   -0.16835E-03    70   0.229E-01    0.582E-02
RMM:   3    -0.113954813004E+03   -0.43013E-04   -0.47407E-04    75   0.106E-01    0.192E-02
RMM:   4    -0.113954824783E+03   -0.11778E-04   -0.80062E-05    69   0.459E-02    0.956E-03
RMM:   5    -0.113954830615E+03   -0.58322E-05   -0.15160E-05    46   0.210E-02
 194 F= -.11423422E+03 E0= -.11423422E+03  d E =-.630702E-02
 BRION: g(F)=  0.343E-02 g(S)=  0.000E+00 retain N=  3 mean eig= 1.26
 eig:   2.116  0.530  1.135
 bond charge predicted
       N       E                     dE             d eps       ncg     rms          rms(c)
DAV:   1    -0.113956090587E+03   -0.12658E-02   -0.78550E-03    92   0.513E-01    0.234E-02
RMM:   2    -0.113956094205E+03   -0.36179E-05   -0.85147E-05    70   0.526E-02
 195 F= -.11423545E+03 E0= -.11423545E+03  d E =-.122447E-02
 BRION: g(F)=  0.339E-02 g(S)=  0.000E+00 retain N=  3 mean eig= 1.04
 eig:   2.231  0.452  0.452
 bond charge predicted
       N       E                     dE             d eps       ncg     rms          rms(c)
DAV:   1    -0.113957561288E+03   -0.14707E-02   -0.20968E-02    76   0.824E-01    0.445E-02
RMM:   2    -0.113957570212E+03   -0.89245E-05   -0.25449E-04    70   0.911E-02    0.266E-02
RMM:   3    -0.113957581096E+03   -0.10884E-04   -0.51674E-05    64   0.400E-02    0.673E-03
RMM:   4    -0.113957585074E+03   -0.39776E-05   -0.11574E-05    45   0.185E-02
 196 F= -.11423692E+03 E0= -.11423692E+03  d E =-.146844E-02
 BRION: g(F)=  0.330E-02 g(S)=  0.000E+00 retain N=  4 mean eig= 3.01
 eig:   7.185  3.229  0.622  0.986
 bond charge predicted
       N       E                     dE             d eps       ncg     rms          rms(c)
DAV:   1    -0.113954499149E+03    0.30819E-02   -0.24727E-01    70   0.258E+00    0.992E-02
RMM:   2    -0.113954560919E+03   -0.61771E-04   -0.27524E-03    70   0.284E-01    0.595E-02
RMM:   3    -0.113954591736E+03   -0.30817E-04   -0.62401E-04    72   0.130E-01    0.183E-02
RMM:   4    -0.113954610928E+03   -0.19192E-04   -0.14343E-04    70   0.589E-02    0.106E-02
RMM:   5    -0.113954614860E+03   -0.39319E-05   -0.25811E-05    50   0.278E-02
 197 F= -.11423424E+03 E0= -.11423424E+03  d E =0.267436E-02
 BRION: g(F)=  0.274E-02 g(S)=  0.000E+00 retain N=  4 mean eig= 3.98
 eig:   6.834  4.235  4.235  0.623
 bond charge predicted
       N       E                     dE             d eps       ncg     rms          rms(c)
DAV:   1    -0.113949382693E+03    0.52282E-02   -0.25463E-01    70   0.264E+00    0.875E-02
RMM:   2    -0.113949428918E+03   -0.46225E-04   -0.28756E-03    70   0.277E-01    0.550E-02
RMM:   3    -0.113949449596E+03   -0.20678E-04   -0.76135E-04    72   0.132E-01    0.198E-02
RMM:   4    -0.113949468521E+03   -0.18925E-04   -0.16060E-04    72   0.597E-02    0.122E-02
RMM:   5    -0.113949471850E+03   -0.33285E-05   -0.25853E-05    51   0.272E-02
 198 F= -.11422944E+03 E0= -.11422944E+03  d E =0.480042E-02
 BRION: g(F)=  0.249E-02 g(S)=  0.000E+00 retain N=  3 mean eig= 2.84
 eig:   7.159  0.674  0.674
 bond charge predicted
       N       E                     dE             d eps       ncg     rms          rms(c)
DAV:   1    -0.113951292608E+03   -0.18241E-02   -0.13510E-01    76   0.204E+00    0.102E-01
RMM:   2    -0.113951364961E+03   -0.72353E-04   -0.16942E-03    70   0.232E-01    0.598E-02
RMM:   3    -0.113951407370E+03   -0.42410E-04   -0.32466E-04    72   0.100E-01    0.160E-02
RMM:   4    -0.113951415159E+03   -0.77887E-05   -0.64528E-05    66   0.451E-02
 199 F= -.11423142E+03 E0= -.11423142E+03  d E =-.197681E-02
 BRION: g(F)=  0.203E-02 g(S)=  0.000E+00 retain N=  4 mean eig= 3.06
 eig:   6.320  3.890  1.550  0.478
 bond charge predicted
       N       E                     dE             d eps       ncg     rms          rms(c)
DAV:   1    -0.113950218076E+03    0.11893E-02   -0.78881E-02    70   0.145E+00    0.548E-02
RMM:   2    -0.113950241993E+03   -0.23917E-04   -0.91995E-04    70   0.163E-01    0.336E-02
RMM:   3    -0.113950251678E+03   -0.96849E-05   -0.20867E-04    71   0.753E-02    0.105E-02
RMM:   4    -0.113950257780E+03   -0.61020E-05   -0.48971E-05    56   0.343E-02
 200 F= -.11423042E+03 E0= -.11423042E+03  d E =0.100259E-02
 BRION: g(F)=  0.181E-02 g(S)=  0.000E+00 retain N=  4 mean eig= 2.28
 eig:   4.685  1.428  1.428  1.564
 bond charge predicted
       N       E                     dE             d eps       ncg     rms          rms(c)
DAV:   1    -0.113950131278E+03    0.12040E-03   -0.34187E-02    76   0.986E-01    0.426E-02
RMM:   2    -0.113950144467E+03   -0.13189E-04   -0.43980E-04    70   0.115E-01    0.258E-02
RMM:   3    -0.113950151689E+03   -0.72217E-05   -0.95023E-05    71   0.523E-02
 201 F= -.11423038E+03 E0= -.11423038E+03  d E =0.333404E-04
 BRION: g(F)=  0.165E-02 g(S)=  0.000E+00 retain N=  4 mean eig= 1.23
 eig:   1.393  1.393  0.258  1.861
 bond charge predicted
       N       E                     dE             d eps       ncg     rms          rms(c)
DAV:   1    -0.113950190173E+03   -0.45706E-04   -0.44968E-02    70   0.114E+00    0.511E-02
RMM:   2    -0.113950213141E+03   -0.22968E-04   -0.59354E-04    70   0.135E-01    0.311E-02
RMM:   3    -0.113950224554E+03   -0.11412E-04   -0.12167E-04    71   0.606E-02    0.839E-03
RMM:   4    -0.113950227854E+03   -0.33004E-05   -0.25432E-05    49   0.277E-02
 202 F= -.11423053E+03 E0= -.11423053E+03  d E =-.149746E-03
 BRION: g(F)=  0.157E-02 g(S)=  0.000E+00 retain N=  4 mean eig= 1.83
 eig:   2.439  2.439  1.902  0.556
 bond charge predicted
       N       E                     dE             d eps       ncg     rms          rms(c)
DAV:   1    -0.113950001157E+03    0.22340E-03   -0.24349E-01    70   0.263E+00    0.113E-01
RMM:   2    -0.113950101410E+03   -0.10025E-03   -0.30323E-03    70   0.304E-01    0.680E-02
RMM:   3    -0.113950145103E+03   -0.43693E-04   -0.63965E-04    72   0.136E-01    0.185E-02
RMM:   4    -0.113950159462E+03   -0.14358E-04   -0.12482E-04    72   0.599E-02    0.944E-03
RMM:   5    -0.113950161370E+03   -0.19081E-05   -0.25414E-05    50   0.285E-02
 203 F= -.11423064E+03 E0= -.11423064E+03  d E =-.111136E-03
 BRION: g(F)=  0.135E-02 g(S)=  0.000E+00 retain N=  4 mean eig= 3.66
 eig:   6.280  6.280  1.049  1.049
 bond charge predicted
       N       E                     dE             d eps       ncg     rms          rms(c)
DAV:   1    -0.113950334062E+03   -0.17460E-03   -0.17516E-01    70   0.226E+00    0.101E-01
RMM:   2    -0.113950415910E+03   -0.81849E-04   -0.22508E-03    70   0.263E-01    0.604E-02
RMM:   3    -0.113950454265E+03   -0.38354E-04   -0.46646E-04    72   0.117E-01    0.164E-02
RMM:   4    -0.113950464877E+03   -0.10613E-04   -0.87343E-05    71   0.520E-02    0.782E-03
RMM:   5    -0.113950467103E+03   -0.22252E-05   -0.19529E-05    47   0.255E-02
 204 F= -.11423106E+03 E0= -.11423106E+03  d E =-.418016E-03
 BRION: g(F)=  0.121E-02 g(S)=  0.000E+00 retain N=  4 mean eig= 4.47
 eig:   7.622  7.622  1.318  1.318
 bond charge predicted
       N       E                     dE             d eps       ncg     rms          rms(c)
DAV:   1    -0.113950494017E+03   -0.29140E-04   -0.98678E-02    70   0.169E+00    0.746E-02
RMM:   2    -0.113950538523E+03   -0.44505E-04   -0.12609E-03    70   0.197E-01    0.446E-02
RMM:   3    -0.113950559535E+03   -0.21012E-04   -0.26378E-04    72   0.882E-02    0.123E-02
RMM:   4    -0.113950566164E+03   -0.66293E-05   -0.48883E-05    58   0.394E-02
 205 F= -.11423125E+03 E0= -.11423125E+03  d E =-.188628E-03
 BRION: g(F)=  0.104E-02 g(S)=  0.000E+00 retain N=  3 mean eig= 4.11
 eig:   5.431  5.431  1.478
 bond charge predicted
       N       E                     dE             d eps       ncg     rms          rms(c)
DAV:   1    -0.113950637375E+03   -0.77840E-04   -0.54717E-02    70   0.127E+00    0.565E-02
RMM:   2    -0.113950666578E+03   -0.29203E-04   -0.72987E-04    70   0.150E-01    0.342E-02
RMM:   3    -0.113950681168E+03   -0.14590E-04   -0.15100E-04    72   0.664E-02    0.941E-03
RMM:   4    -0.113950685181E+03   -0.40133E-05   -0.26145E-05    51   0.287E-02
 206 F= -.11423142E+03 E0= -.11423142E+03  d E =-.173858E-03
 BRION: g(F)=  0.922E-03 g(S)=  0.000E+00 retain N=  3 mean eig= 3.70
 eig:   4.902  4.902  1.310
 bond charge predicted
       N       E                     dE             d eps       ncg     rms          rms(c)
DAV:   1    -0.113950637781E+03    0.43387E-04   -0.17401E-01    70   0.225E+00    0.997E-02
RMM:   2    -0.113950723009E+03   -0.85228E-04   -0.22439E-03    70   0.262E-01    0.599E-02
RMM:   3    -0.113950760988E+03   -0.37979E-04   -0.46069E-04    72   0.116E-01    0.164E-02
RMM:   4    -0.113950771282E+03   -0.10295E-04   -0.84536E-05    70   0.510E-02    0.773E-03
RMM:   5    -0.113950773428E+03   -0.21456E-05   -0.18414E-05    47   0.247E-02
 207 F= -.11423161E+03 E0= -.11423161E+03  d E =-.185296E-03
 BRION: g(F)=  0.804E-03 g(S)=  0.000E+00 retain N=  3 mean eig= 4.79
 eig:   6.467  6.467  1.433
 bond charge predicted
       N       E                     dE             d eps       ncg     rms          rms(c)
DAV:   1    -0.113950740190E+03    0.31092E-04   -0.70491E-02    70   0.143E+00    0.633E-02
RMM:   2    -0.113950774944E+03   -0.34753E-04   -0.92010E-04    70   0.168E-01    0.378E-02
RMM:   3    -0.113950791458E+03   -0.16514E-04   -0.19160E-04    72   0.753E-02    0.107E-02
RMM:   4    -0.113950796593E+03   -0.51349E-05   -0.35191E-05    53   0.335E-02
 208 F= -.11423169E+03 E0= -.11423169E+03  d E =-.827898E-04
 BRION: g(F)=  0.714E-03 g(S)=  0.000E+00 retain N=  3 mean eig= 5.81
 eig:   1.757  7.835  7.835
 bond charge predicted
       N       E                     dE             d eps       ncg     rms          rms(c)
DAV:   1    -0.113950772394E+03    0.19064E-04   -0.33327E-02    76   0.987E-01    0.428E-02
RMM:   2    -0.113950791058E+03   -0.18664E-04   -0.45017E-04    70   0.117E-01    0.261E-02
RMM:   3    -0.113950800186E+03   -0.91284E-05   -0.91999E-05    71   0.521E-02
 209 F= -.11423173E+03 E0= -.11423173E+03  d E =-.429890E-04
 BRION: g(F)=  0.651E-03 g(S)=  0.000E+00 retain N=  2 mean eig= 4.86
 eig:   4.857  4.857
 bond charge predicted
       N       E                     dE             d eps       ncg     rms          rms(c)
DAV:   1    -0.113950777851E+03    0.13207E-04   -0.32902E-02    70   0.978E-01    0.416E-02
RMM:   2    -0.113950798481E+03   -0.20630E-04   -0.45330E-04    70   0.118E-01    0.257E-02
RMM:   3    -0.113950808131E+03   -0.96493E-05   -0.92162E-05    71   0.527E-02
 210 F= -.11423178E+03 E0= -.11423178E+03  d E =-.496954E-04
 BRION: g(F)=  0.598E-03 g(S)=  0.000E+00 retain N=  2 mean eig= 4.07
 eig:   4.065  4.065
 bond charge predicted
       N       E                     dE             d eps       ncg     rms          rms(c)
DAV:   1    -0.113950828127E+03   -0.29645E-04   -0.41115E-03    76   0.346E-01    0.143E-02
RMM:   2    -0.113950832317E+03   -0.41906E-05   -0.65816E-05    63   0.450E-02
 211 F= -.11423183E+03 E0= -.11423183E+03  d E =-.422420E-04
 BRION: g(F)=  0.567E-03 g(S)=  0.000E+00 retain N=  3 mean eig= 4.49
 eig:   6.199  6.199  1.078
 bond charge predicted
       N       E                     dE             d eps       ncg     rms          rms(c)
DAV:   1    -0.113950790279E+03    0.37848E-04   -0.10694E-01    70   0.176E+00    0.742E-02
RMM:   2    -0.113950843332E+03   -0.53052E-04   -0.14042E-03    70   0.206E-01    0.453E-02
RMM:   3    -0.113950865583E+03   -0.22251E-04   -0.29125E-04    72   0.921E-02    0.135E-02
RMM:   4    -0.113950872365E+03   -0.67821E-05   -0.53328E-05    62   0.402E-02
 212 F= -.11423194E+03 E0= -.11423194E+03  d E =-.116995E-03
 BRION: g(F)=  0.479E-03 g(S)=  0.000E+00 retain N=  1 mean eig= 7.18
 eig:   7.178
 bond charge predicted
       N       E                     dE             d eps       ncg     rms          rms(c)
DAV:   1    -0.113950916914E+03   -0.51331E-04   -0.62962E-04    92   0.139E-01    0.738E-03
RMM:   2    -0.113950918220E+03   -0.13060E-05   -0.72124E-06    43   0.154E-02
 213 F= -.11423199E+03 E0= -.11423199E+03  d E =-.495747E-04
 BRION: g(F)=  0.469E-03 g(S)=  0.000E+00 retain N=  1 mean eig= 0.63
 eig:   0.631
 bond charge predicted
       N       E                     dE             d eps       ncg     rms          rms(c)
DAV:   1    -0.113950954145E+03   -0.37231E-04   -0.46373E-04    84   0.119E-01    0.439E-03
RMM:   2    -0.113950955385E+03   -0.12395E-05   -0.66049E-06    42   0.139E-02
 214 F= -.11423204E+03 E0= -.11423204E+03  d E =-.439910E-04
 BRION: g(F)=  0.445E-03 g(S)=  0.000E+00 retain N=  2 mean eig= 1.33
 eig:   1.333  1.333
 bond charge predicted
       N       E                     dE             d eps       ncg     rms          rms(c)
DAV:   1    -0.113951281848E+03   -0.32770E-03   -0.48189E-02    70   0.126E+00    0.526E-02
RMM:   2    -0.113951309097E+03   -0.27249E-04   -0.58364E-04    70   0.136E-01    0.317E-02
RMM:   3    -0.113951325746E+03   -0.16649E-04   -0.11407E-04    72   0.597E-02    0.912E-03
RMM:   4    -0.113951329578E+03   -0.38321E-05   -0.26606E-05    49   0.270E-02
 215 F= -.11423247E+03 E0= -.11423247E+03  d E =-.432252E-03
 BRION: g(F)=  0.314E-03 g(S)=  0.000E+00
 BRIONS problems: POTIM should be increased
 retain N=  1 mean eig=10.30
 eig:  10.295
 reached required accuracy - stopping structural energy minimisation
