<?xml version="1.0" encoding="ISO-8859-1"?>
<modeling>
 <generator>
  <i name="program" type="string">vasp </i>
  <i name="version" type="string">6.3.2  </i>
  <i name="subversion" type="string">27Jun22 (build Oct 05 2023 17:59:42) gamma-only                       parallel </i>
  <i name="platform" type="string">LinuxIFC </i>
  <i name="date" type="string">2024 04 09 </i>
  <i name="time" type="string">10:49:28 </i>
 </generator>
 <incar>
  <i type="string" name="PREC">NORMAL</i>
  <i type="string" name="ALGO">Fast</i>
  <i type="int" name="ISPIN">     1</i>
  <i type="int" name="IBRION">     1</i>
  <i name="EDIFF">      0.00001000</i>
  <i name="EDIFFG">     -0.05000000</i>
  <i type="int" name="NSW">  5000</i>
  <i name="ENCUT">    400.00000000</i>
  <i name="POTIM">      0.10000000</i>
  <i type="int" name="ISMEAR">     0</i>
  <i name="SIGMA">      0.05000000</i>
  <i type="logical" name="LWAVE"> F  </i>
  <i type="logical" name="LCHARG"> F  </i>
  <i type="string" name="GGA">PE</i>
  <i type="int" name="IVDW">    11</i>
  <i name="SPRING">     -5.00000000</i>
 </incar>
 <primitive_cell>
  <structure name="primitive_cell" >
   <crystal>
    <varray name="basis" >
     <v>      15.00000000       0.00000000       0.00000000 </v>
     <v>       0.00000000      15.00000000       0.00000000 </v>
     <v>       0.00000000       0.00000000      15.00000000 </v>
    </varray>
    <i name="volume">   3375.00000000 </i>
    <varray name="rec_basis" >
     <v>       0.06666667       0.00000000       0.00000000 </v>
     <v>       0.00000000       0.06666667       0.00000000 </v>
     <v>       0.00000000       0.00000000       0.06666667 </v>
    </varray>
   </crystal>
   <varray name="positions" >
    <v>       0.38018062       0.52768379       0.58890899 </v>
    <v>       0.39164218       0.43912391       0.60391137 </v>
    <v>       0.48231773       0.40538986       0.60892683 </v>
    <v>       0.45557001       0.58602520       0.59532481 </v>
    <v>       0.51935142       0.53994977       0.50011611 </v>
    <v>       0.52260453       0.43827079       0.50238157 </v>
    <v>       0.60474767       0.58252501       0.51309656 </v>
    <v>       0.46409358       0.39036739       0.44236112 </v>
    <v>       0.34180628       0.39216996       0.58197533 </v>
    <v>       0.52896079       0.43964814       0.65162998 </v>
    <v>       0.48702017       0.33348506       0.62174751 </v>
    <v>       0.32444029       0.55256624       0.54990342 </v>
    <v>       0.50513083       0.57433829       0.64739643 </v>
    <v>       0.44000423       0.65820519       0.59472567 </v>
    <v>       0.48439776       0.56739959       0.44206845 </v>
    <v>       0.59066360       0.41183142       0.50425627 </v>
    <v>       0.66546101       0.62635574       0.53441987 </v>
    <v>       0.41219702       0.34356700       0.40770188 </v>
   </varray>
  </structure>
  <varray name="primitive_index" >
   <v type="int" >        1 </v>
   <v type="int" >        2 </v>
   <v type="int" >        3 </v>
   <v type="int" >        4 </v>
   <v type="int" >        5 </v>
   <v type="int" >        6 </v>
   <v type="int" >        7 </v>
   <v type="int" >        8 </v>
   <v type="int" >        9 </v>
   <v type="int" >       10 </v>
   <v type="int" >       11 </v>
   <v type="int" >       12 </v>
   <v type="int" >       13 </v>
   <v type="int" >       14 </v>
   <v type="int" >       15 </v>
   <v type="int" >       16 </v>
   <v type="int" >       17 </v>
   <v type="int" >       18 </v>
  </varray>
 </primitive_cell>
 <kpoints>
  <generation param="Monkhorst-Pack">
   <v type="int" name="divisions">       1        1        1 </v>
   <v name="usershift">      0.00000000       0.00000000       0.00000000 </v>
   <v name="genvec1">      1.00000000       0.00000000       0.00000000 </v>
   <v name="genvec2">      0.00000000       1.00000000       0.00000000 </v>
   <v name="genvec3">      0.00000000       0.00000000       1.00000000 </v>
   <v name="shift">      0.00000000       0.00000000       0.00000000 </v>
  </generation>
  <varray name="kpointlist" >
   <v>       0.00000000       0.00000000       0.00000000 </v>
  </varray>
  <varray name="weights" >
   <v>       1.00000000 </v>
  </varray>
 </kpoints>
 <parameters>
  <separator name="general" >
   <i type="string" name="SYSTEM">unknown system</i>
   <i type="logical" name="LCOMPAT"> F  </i>
  </separator>
  <separator name="electronic" >
   <i type="string" name="PREC">normal</i>
   <i name="ENMAX">    400.00000000</i>
   <i name="ENAUG">    644.87300000</i>
   <i name="EDIFF">      0.00001000</i>
   <i type="int" name="IALGO">    68</i>
   <i type="int" name="IWAVPR">    11</i>
   <i type="int" name="NBANDS">    35</i>
   <i type="int" name="NBANDSLOW">    -1</i>
   <i type="int" name="NBANDSHIGH">    -1</i>
   <i name="NELECT">     50.00000000</i>
   <i type="int" name="TURBO">     0</i>
   <i type="int" name="IRESTART">     0</i>
   <i type="int" name="NREBOOT">     0</i>
   <i type="int" name="NMIN">     0</i>
   <i name="EREF">      0.00000000</i>
   <separator name="electronic smearing" >
    <i type="int" name="ISMEAR">     0</i>
    <i name="SIGMA">      0.05000000</i>
    <i name="KSPACING">      0.50000000</i>
    <i type="logical" name="KGAMMA"> T  </i>
    <i type="logical" name="KBLOWUP"> T  </i>
   </separator>
   <separator name="electronic projectors" >
    <i type="logical" name="LREAL"> F  </i>
    <v name="ROPT">      0.00000000      0.00000000      0.00000000</v>
    <i type="int" name="LMAXPAW">  -100</i>
    <i type="int" name="LMAXMIX">     2</i>
    <i type="logical" name="NLSPLINE"> F  </i>
   </separator>
   <separator name="electronic startup" >
    <i type="int" name="ISTART">     0</i>
    <i type="int" name="ICHARG">     2</i>
    <i type="int" name="INIWAV">     1</i>
   </separator>
   <separator name="electronic spin" >
    <i type="int" name="ISPIN">     1</i>
    <i type="logical" name="LNONCOLLINEAR"> F  </i>
    <v name="MAGMOM">      1.00000000      1.00000000      1.00000000      1.00000000      1.00000000      1.00000000      1.00000000      1.00000000      1.00000000      1.00000000      1.00000000      1.00000000      1.00000000      1.00000000      1.00000000      1.00000000      1.00000000      1.00000000</v>
    <i name="NUPDOWN">     -1.00000000</i>
    <i type="logical" name="LSORBIT"> F  </i>
    <v name="SAXIS">      0.00000000      0.00000000      1.00000000</v>
    <i type="logical" name="LSPIRAL"> F  </i>
    <v name="QSPIRAL">      0.00000000      0.00000000      0.00000000</v>
    <i type="logical" name="LZEROZ"> F  </i>
   </separator>
   <separator name="electronic exchange-correlation" >
    <i type="logical" name="LASPH"> F  </i>
    <i type="logical" name="LMETAGGA"> F  </i>
   </separator>
   <separator name="electronic convergence" >
    <i type="int" name="NELM">    60</i>
    <i type="int" name="NELMDL">    -5</i>
    <i type="int" name="NELMIN">     2</i>
    <i name="ENINI">    400.00000000</i>
    <separator name="electronic convergence detail" >
     <i type="logical" name="LDIAG"> T  </i>
     <i type="logical" name="LSUBROT"> F  </i>
     <i name="WEIMIN">      0.00100000</i>
     <i name="EBREAK">      0.00000007</i>
     <i name="DEPER">      0.30000000</i>
     <i type="int" name="NRMM">     4</i>
     <i name="TIME">      0.40000000</i>
    </separator>
   </separator>
   <separator name="electronic mixer" >
    <i name="AMIX">      0.40000000</i>
    <i name="BMIX">      1.00000000</i>
    <i name="AMIN">      0.10000000</i>
    <i name="AMIX_MAG">      1.60000000</i>
    <i name="BMIX_MAG">      1.00000000</i>
    <separator name="electronic mixer details" >
     <i type="int" name="IMIX">     4</i>
     <i type="logical" name="MIXFIRST"> F  </i>
     <i type="int" name="MAXMIX">   -45</i>
     <i name="WC">    100.00000000</i>
     <i type="int" name="INIMIX">     1</i>
     <i type="int" name="MIXPRE">     1</i>
     <i type="int" name="MREMOVE">     5</i>
    </separator>
   </separator>
   <separator name="electronic dipolcorrection" >
    <i type="logical" name="LDIPOL"> F  </i>
    <i type="logical" name="LMONO"> F  </i>
    <i type="int" name="IDIPOL">     0</i>
    <i name="EPSILON">      1.00000000</i>
    <v name="DIPOL">   -100.00000000   -100.00000000   -100.00000000</v>
    <i name="EFIELD">      0.00000000</i>
   </separator>
  </separator>
  <separator name="grids" >
   <i type="int" name="NGX">    80</i>
   <i type="int" name="NGY">    80</i>
   <i type="int" name="NGZ">    80</i>
   <i type="int" name="NGXF">   160</i>
   <i type="int" name="NGYF">   160</i>
   <i type="int" name="NGZF">   160</i>
   <i type="logical" name="ADDGRID"> F  </i>
  </separator>
  <separator name="ionic" >
   <i type="int" name="NSW">  5000</i>
   <i type="int" name="IBRION">     1</i>
   <i type="int" name="MDALGO">     0</i>
   <i type="int" name="ISIF">     2</i>
   <i name="PSTRESS">      0.00000000</i>
   <i name="EDIFFG">     -0.05000000</i>
   <i type="int" name="NFREE">     0</i>
   <i name="POTIM">      0.10000000</i>
   <i name="SMASS">     -3.00000000</i>
   <i name="SCALEE">      1.00000000</i>
  </separator>
  <separator name="ionic md" >
   <i name="TEBEG">      0.00010000</i>
   <i name="TEEND">      0.00010000</i>
   <i type="int" name="NBLOCK">     1</i>
   <i type="int" name="KBLOCK">  5000</i>
   <i type="int" name="NPACO">   256</i>
   <i name="APACO">     10.00000000</i>
  </separator>
  <separator name="symmetry" >
   <i type="int" name="ISYM">     2</i>
   <i name="SYMPREC">      0.00001000</i>
  </separator>
  <separator name="dos" >
   <i type="int" name="LORBIT">     0</i>
   <v name="RWIGS">     -1.00000000     -1.00000000     -1.00000000</v>
   <i type="int" name="NEDOS">   301</i>
   <i name="EMIN">     10.00000000</i>
   <i name="EMAX">    -10.00000000</i>
   <i name="EFERMI">      0.00000000</i>
  </separator>
  <separator name="writing" >
   <i type="int" name="NWRITE">     2</i>
   <i type="logical" name="LWAVE"> F  </i>
   <i type="logical" name="LDOWNSAMPLE"> F  </i>
   <i type="logical" name="LCHARG"> F  </i>
   <i type="logical" name="LPARD"> F  </i>
   <i type="logical" name="LVTOT"> F  </i>
   <i type="logical" name="LVHAR"> F  </i>
   <i type="logical" name="LELF"> F  </i>
   <i type="logical" name="LOPTICS"> F  </i>
   <v name="STM">      0.00000000      0.00000000      0.00000000      0.00000000      0.00000000      0.00000000      0.00000000</v>
  </separator>
  <separator name="performance" >
   <i type="int" name="NPAR">     1</i>
   <i type="int" name="NSIM">     4</i>
   <i type="int" name="NBLK">    -1</i>
   <i type="logical" name="LPLANE"> T  </i>
   <i type="logical" name="LSCALAPACK"> T  </i>
   <i type="logical" name="LSCAAWARE"> F  </i>
   <i type="logical" name="LSCALU"> F  </i>
   <i type="logical" name="LASYNC"> F  </i>
   <i type="logical" name="LORBITALREAL"> F  </i>
  </separator>
  <separator name="miscellaneous" >
   <i type="int" name="IDIOT">     3</i>
   <i type="int" name="PHON_NSTRUCT">    -1</i>
   <i type="logical" name="LMUSIC"> F  </i>
   <v name="POMASS">     12.01100000      1.00000000     14.00100000</v>
   <v name="DARWINR">      0.00000000      0.00000000      0.00000000</v>
   <v name="DARWINV">      1.00000000      1.00000000      1.00000000</v>
   <i type="logical" name="LCORR"> T  </i>
  </separator>
  <i type="logical" name="GGA_COMPAT"> T  </i>
  <i type="logical" name="LBERRY"> F  </i>
  <i type="int" name="ICORELEVEL">     0</i>
  <i type="logical" name="LDAU"> F  </i>
  <i type="int" name="I_CONSTRAINED_M">     0</i>
  <separator name="electronic exchange-correlation" >
   <i type="string" name="GGA">PE</i>
   <i type="int" name="VOSKOWN">     0</i>
   <i type="logical" name="LHFCALC"> F  </i>
   <i type="string" name="PRECFOCK"></i>
   <i type="logical" name="LSYMGRAD"> F  </i>
   <i type="logical" name="LHFONE"> F  </i>
   <i type="logical" name="LRHFCALC"> F  </i>
   <i type="logical" name="LTHOMAS"> F  </i>
   <i type="logical" name="LMODELHF"> F  </i>
   <i type="logical" name="LFOCKACE"> F  </i>
   <i name="ENCUT4O">     -1.00000000</i>
   <i type="int" name="EXXOEP">     0</i>
   <i type="int" name="FOURORBIT">     0</i>
   <i name="AEXX">      0.00000000</i>
   <i name="HFALPHA">      0.00000000</i>
   <i name="MCALPHA">      0.00000000</i>
   <i name="ALDAX">      1.00000000</i>
   <i name="AGGAX">      1.00000000</i>
   <i name="ALDAC">      1.00000000</i>
   <i name="AGGAC">      1.00000000</i>
   <i type="int" name="NKREDX">     1</i>
   <i type="int" name="NKREDY">     1</i>
   <i type="int" name="NKREDZ">     1</i>
   <i type="logical" name="SHIFTRED"> F  </i>
   <i type="logical" name="ODDONLY"> F  </i>
   <i type="logical" name="EVENONLY"> F  </i>
   <i type="int" name="LMAXFOCK">     0</i>
   <i type="int" name="NMAXFOCKAE">     0</i>
   <i type="logical" name="LFOCKAEDFT"> F  </i>
   <i name="HFSCREEN">      0.00000000</i>
   <i name="HFSCREENC">      0.00000000</i>
   <i type="int" name="NBANDSGWLOW">     0</i>
  </separator>
  <separator name="vdW DFT" >
   <i type="logical" name="LUSE_VDW"> F  </i>
   <i name="Zab_VDW">     -0.84910000</i>
   <i name="PARAM1">      0.12340000</i>
   <i name="PARAM2">      1.00000000</i>
   <i name="PARAM3">      0.00000000</i>
  </separator>
  <separator name="model GW" >
   <i type="int" name="MODEL_GW">     0</i>
   <i name="MODEL_EPS0">    112.50000000</i>
   <i name="MODEL_ALPHA">      1.00000000</i>
  </separator>
  <separator name="linear response parameters" >
   <i type="logical" name="LEPSILON"> F  </i>
   <i type="logical" name="LRPA"> F  </i>
   <i type="logical" name="LNABLA"> F  </i>
   <i type="logical" name="LVEL"> F  </i>
   <i name="CSHIFT">      0.10000000</i>
   <i name="OMEGAMAX">     -1.00000000</i>
   <i name="DEG_THRESHOLD">      0.00200000</i>
   <i name="RTIME">     -0.10000000</i>
   <i name="WPLASMAI">      0.00000000</i>
   <v name="DFIELD">      0.00000000      0.00000000      0.00000000</v>
   <v name="WPLASMA">      0.00000000      0.00000000      0.00000000      0.00000000      0.00000000      0.00000000      0.00000000      0.00000000      0.00000000</v>
  </separator>
  <separator name="orbital magnetization" >
   <i type="logical" name="NUCIND"> F  </i>
   <v name="MAGPOS">      0.00000000      0.00000000      0.00000000</v>
   <i type="logical" name="LNICSALL"> T  </i>
   <i type="logical" name="ORBITALMAG"> F  </i>
   <i type="logical" name="LMAGBLOCH"> F  </i>
   <i type="logical" name="LCHIMAG"> F  </i>
   <i type="logical" name="LGAUGE"> T  </i>
   <i type="int" name="MAGATOM">     0</i>
   <v name="MAGDIPOL">      0.00000000      0.00000000      0.00000000</v>
   <v name="AVECCONST">      0.00000000      0.00000000      0.00000000</v>
  </separator>
  <separator name="response functions" >
   <i type="logical" name="LFINITE_TEMPERATURE"> F  </i>
   <i type="logical" name="LADDER"> F  </i>
   <i type="logical" name="LRPAFORCE"> F  </i>
   <i type="logical" name="LFXC"> F  </i>
   <i type="logical" name="LHARTREE"> T  </i>
   <i type="int" name="IBSE">     0</i>
   <v type="int" name="KPOINT">    -1     0     0     0</v>
   <i type="logical" name="LTCTC"> F  </i>
   <i type="logical" name="LTCTE"> F  </i>
   <i type="logical" name="LTETE"> F  </i>
   <i type="logical" name="LTRIPLET"> F  </i>
   <i type="logical" name="LFXCEPS"> F  </i>
   <i type="logical" name="LFXHEG"> F  </i>
   <i type="int" name="NATURALO">     2</i>
   <i type="logical" name="LHOLEGF"> F  </i>
   <i type="logical" name="L2ORDER"> F  </i>
   <i type="logical" name="LDMP1"> F  </i>
   <i type="logical" name="LMP2LT"> F  </i>
   <i type="logical" name="LSMP2LT"> F  </i>
   <i type="logical" name="LGWLF"> F  </i>
   <i name="ENCUTGW">     -2.00000000</i>
   <i name="ENCUTGWSOFT">     -2.00000000</i>
   <i name="ENCUTLF">     -1.00000000</i>
   <i type="logical" name="LESF_SPLINES"> F  </i>
   <i type="int" name="LMAXMP2">    -1</i>
   <i name="SCISSOR">      0.00000000</i>
   <i type="int" name="NOMEGA">     0</i>
   <i type="int" name="NOMEGAR">     0</i>
   <i type="int" name="NBANDSGW">    -1</i>
   <i type="int" name="NBANDSO">    -1</i>
   <i type="int" name="NBANDSV">    -1</i>
   <i type="int" name="NELMGW">     1</i>
   <i type="int" name="NELMHF">     1</i>
   <i type="int" name="DIM">     3</i>
   <i type="int" name="IESPILON">     4</i>
   <i type="int" name="ANTIRES">     0</i>
   <i name="OMEGAMAX">    -30.00000000</i>
   <i name="OMEGAMIN">    -30.00000000</i>
   <i name="OMEGATL">   -200.00000000</i>
   <i type="int" name="OMEGAGRID">     0</i>
   <i name="CSHIFT">     -0.10000000</i>
   <i type="logical" name="LSELFENERGY"> F  </i>
   <i type="logical" name="LSPECTRAL"> F  </i>
   <i type="logical" name="LSPECTRALGW"> F  </i>
   <i type="logical" name="LSINGLES"> F  </i>
   <i type="logical" name="LFERMIGW"> F  </i>
   <i type="logical" name="ODDONLYGW"> F  </i>
   <i type="logical" name="EVENONLYGW"> F  </i>
   <i type="int" name="NKREDLFX">     1</i>
   <i type="int" name="NKREDLFY">     1</i>
   <i type="int" name="NKREDLFZ">     1</i>
   <i type="int" name="MAXMEM">  2800</i>
   <i type="int" name="TELESCOPE">     0</i>
   <i type="int" name="NTAUPAR">    -1</i>
   <i type="int" name="NOMEGAPAR">    -1</i>
   <i name="DAMP_NEWTON">      0.80000001</i>
   <i name="LAMBDA">      1.00000000</i>
  </separator>
  <separator name="External order field" >
   <i name="OFIELD_KAPPA">      0.00000000</i>
   <v name="OFIELD_K">      0.00000000      0.00000000      0.00000000</v>
   <i name="OFIELD_Q6_NEAR">      0.00000000</i>
   <i name="OFIELD_Q6_FAR">      0.00000000</i>
   <i name="OFIELD_A">      0.00000000</i>
  </separator>
  <separator name="optional k-points parameters" >
   <i type="int" name="KPOINTS_OPT_MODE">     1</i>
   <i type="logical" name="LKPOINTS_OPT"> F  </i>
  </separator>
 </parameters>
 <atominfo>
  <atoms>      18 </atoms>
  <types>       3 </types>
  <array name="atoms" >
   <dimension dim="1">ion</dimension>
   <field type="string">element</field>
   <field type="int">atomtype</field>
   <set>
    <rc><c>C </c><c>   1</c></rc>
    <rc><c>C </c><c>   1</c></rc>
    <rc><c>C </c><c>   1</c></rc>
    <rc><c>C </c><c>   1</c></rc>
    <rc><c>C </c><c>   1</c></rc>
    <rc><c>C </c><c>   1</c></rc>
    <rc><c>C </c><c>   1</c></rc>
    <rc><c>C </c><c>   1</c></rc>
    <rc><c>H </c><c>   2</c></rc>
    <rc><c>H </c><c>   2</c></rc>
    <rc><c>H </c><c>   2</c></rc>
    <rc><c>H </c><c>   2</c></rc>
    <rc><c>H </c><c>   2</c></rc>
    <rc><c>H </c><c>   2</c></rc>
    <rc><c>H </c><c>   2</c></rc>
    <rc><c>H </c><c>   2</c></rc>
    <rc><c>N </c><c>   3</c></rc>
    <rc><c>N </c><c>   3</c></rc>
   </set>
  </array>
  <array name="atomtypes" >
   <dimension dim="1">type</dimension>
   <field type="int">atomspertype</field>
   <field type="string">element</field>
   <field>mass</field>
   <field>valence</field>
   <field type="string">pseudopotential</field>
   <set>
    <rc><c>   8</c><c>C </c><c>     12.01100000</c><c>      4.00000000</c><c>  PAW_PBE C 08Apr2002                   </c></rc>
    <rc><c>   8</c><c>H </c><c>      1.00000000</c><c>      1.00000000</c><c>  PAW_PBE H 15Jun2001                   </c></rc>
    <rc><c>   2</c><c>N </c><c>     14.00100000</c><c>      5.00000000</c><c>  PAW_PBE N 08Apr2002                   </c></rc>
   </set>
  </array>
 </atominfo>
 <structure name="initialpos" >
  <crystal>
   <varray name="basis" >
    <v>      15.00000000       0.00000000       0.00000000 </v>
    <v>       0.00000000      15.00000000       0.00000000 </v>
    <v>       0.00000000       0.00000000      15.00000000 </v>
   </varray>
   <i name="volume">   3375.00000000 </i>
   <varray name="rec_basis" >
    <v>       0.06666667       0.00000000       0.00000000 </v>
    <v>       0.00000000       0.06666667       0.00000000 </v>
    <v>       0.00000000       0.00000000       0.06666667 </v>
   </varray>
  </crystal>
  <varray name="positions" >
   <v>       0.38018062       0.52768379       0.58890899 </v>
   <v>       0.39164218       0.43912391       0.60391137 </v>
   <v>       0.48231773       0.40538986       0.60892683 </v>
   <v>       0.45557001       0.58602520       0.59532481 </v>
   <v>       0.51935142       0.53994977       0.50011611 </v>
   <v>       0.52260453       0.43827079       0.50238157 </v>
   <v>       0.60474767       0.58252501       0.51309656 </v>
   <v>       0.46409358       0.39036739       0.44236112 </v>
   <v>       0.34180628       0.39216996       0.58197533 </v>
   <v>       0.52896079       0.43964814       0.65162998 </v>
   <v>       0.48702017       0.33348506       0.62174751 </v>
   <v>       0.32444029       0.55256624       0.54990342 </v>
   <v>       0.50513083       0.57433829       0.64739643 </v>
   <v>       0.44000423       0.65820519       0.59472567 </v>
   <v>       0.48439776       0.56739959       0.44206845 </v>
   <v>       0.59066360       0.41183142       0.50425627 </v>
   <v>       0.66546101       0.62635574       0.53441987 </v>
   <v>       0.41219702       0.34356700       0.40770188 </v>
  </varray>
 </structure>
 <calculation>
  <scstep>
   <time name="dav">    4.32    4.43</time>
   <time name="total">    6.67    6.81</time>
   <energy>
    <i name="alphaZ">      3.36120243 </i>
    <i name="ewald">   3155.23395987 </i>
    <i name="hartreedc">  -4407.25351168 </i>
    <i name="XCdc">    160.23649253 </i>
    <i name="pawpsdc">   1295.11405375 </i>
    <i name="pawaedc">  -1302.12229068 </i>
    <i name="eentropy">     -0.00008756 </i>
    <i name="bandstr">   -263.70810054 </i>
    <i name="atom">   1805.79685712 </i>
    <i name="e_fr_energy">    446.65857525 </i>
    <i name="e_wo_entrp">    446.65866281 </i>
    <i name="e_0_energy">    446.65861903 </i>
   </energy>
  </scstep>
  <scstep>
   <time name="dav">    5.49    5.55</time>
   <time name="total">    5.49    5.56</time>
   <energy>
    <i name="e_fr_energy">    104.28739591 </i>
    <i name="e_wo_entrp">    104.28739591 </i>
    <i name="e_0_energy">    104.28739591 </i>
   </energy>
  </scstep>
  <scstep>
   <time name="dav">    5.37    5.53</time>
   <time name="total">    5.37    5.53</time>
   <energy>
    <i name="e_fr_energy">   -100.11688787 </i>
    <i name="e_wo_entrp">   -100.11688787 </i>
    <i name="e_0_energy">   -100.11688787 </i>
   </energy>
  </scstep>
  <scstep>
   <time name="dav">    5.63    5.63</time>
   <time name="total">    5.63    5.64</time>
   <energy>
    <i name="e_fr_energy">   -124.65055150 </i>
    <i name="e_wo_entrp">   -124.65055150 </i>
    <i name="e_0_energy">   -124.65055150 </i>
   </energy>
  </scstep>
  <scstep>
   <time name="dav">    5.44    5.44</time>
   <time name="total">    5.98    5.99</time>
   <energy>
    <i name="e_fr_energy">   -125.15490619 </i>
    <i name="e_wo_entrp">   -125.15490619 </i>
    <i name="e_0_energy">   -125.15490619 </i>
   </energy>
  </scstep>
  <scstep>
   <time name="diag">    0.79    0.79</time>
   <time name="diis">    3.51    3.51</time>
   <time name="orth">    0.01    0.01</time>
   <time name="total">    7.34    7.34</time>
   <energy>
    <i name="e_fr_energy">   -116.66035862 </i>
    <i name="e_wo_entrp">   -116.66035862 </i>
    <i name="e_0_energy">   -116.66035862 </i>
   </energy>
  </scstep>
  <scstep>
   <time name="diag">    0.35    0.35</time>
   <time name="diis">    2.18    2.18</time>
   <time name="orth">    0.01    0.01</time>
   <time name="total">    4.26    4.26</time>
   <energy>
    <i name="e_fr_energy">   -114.57336136 </i>
    <i name="e_wo_entrp">   -114.57336136 </i>
    <i name="e_0_energy">   -114.57336136 </i>
   </energy>
  </scstep>
  <scstep>
   <time name="diag">    0.34    0.34</time>
   <time name="diis">    2.18    2.18</time>
   <time name="orth">    0.01    0.01</time>
   <time name="total">    4.22    4.22</time>
   <energy>
    <i name="e_fr_energy">   -114.40850803 </i>
    <i name="e_wo_entrp">   -114.40850803 </i>
    <i name="e_0_energy">   -114.40850803 </i>
   </energy>
  </scstep>
  <scstep>
   <time name="diag">    0.34    0.34</time>
   <time name="diis">    2.22    2.23</time>
   <time name="orth">    0.01    0.01</time>
   <time name="total">    4.23    4.24</time>
   <energy>
    <i name="e_fr_energy">   -114.34410336 </i>
    <i name="e_wo_entrp">   -114.34410336 </i>
    <i name="e_0_energy">   -114.34410336 </i>
   </energy>
  </scstep>
  <scstep>
   <time name="diag">    0.35    0.35</time>
   <time name="diis">    2.57    2.57</time>
   <time name="orth">    0.01    0.01</time>
   <time name="total">    4.61    4.63</time>
   <energy>
    <i name="e_fr_energy">   -114.35493409 </i>
    <i name="e_wo_entrp">   -114.35493409 </i>
    <i name="e_0_energy">   -114.35493409 </i>
   </energy>
  </scstep>
  <scstep>
   <time name="diag">    0.36    0.36</time>
   <time name="diis">    2.30    2.30</time>
   <time name="orth">    0.01    0.01</time>
   <time name="total">    4.44    4.45</time>
   <energy>
    <i name="e_fr_energy">   -114.36425745 </i>
    <i name="e_wo_entrp">   -114.36425745 </i>
    <i name="e_0_energy">   -114.36425745 </i>
   </energy>
  </scstep>
  <scstep>
   <time name="diag">    0.38    0.38</time>
   <time name="diis">    2.42    2.42</time>
   <time name="orth">    0.01    0.01</time>
   <time name="total">    4.59    4.60</time>
   <energy>
    <i name="e_fr_energy">   -114.36975376 </i>
    <i name="e_wo_entrp">   -114.36975376 </i>
    <i name="e_0_energy">   -114.36975376 </i>
   </energy>
  </scstep>
  <scstep>
   <time name="diag">    0.38    0.38</time>
   <time name="diis">    2.37    2.37</time>
   <time name="orth">    0.01    0.01</time>
   <time name="total">    4.55    4.55</time>
   <energy>
    <i name="e_fr_energy">   -114.38272427 </i>
    <i name="e_wo_entrp">   -114.38272427 </i>
    <i name="e_0_energy">   -114.38272427 </i>
   </energy>
  </scstep>
  <scstep>
   <time name="diag">    0.37    0.37</time>
   <time name="diis">    3.35    3.35</time>
   <time name="orth">    0.03    0.04</time>
   <time name="total">    5.96    5.97</time>
   <energy>
    <i name="e_fr_energy">   -114.38565895 </i>
    <i name="e_wo_entrp">   -114.38565895 </i>
    <i name="e_0_energy">   -114.38565895 </i>
   </energy>
  </scstep>
  <scstep>
   <time name="diag">    0.36    0.36</time>
   <time name="diis">    3.56    3.56</time>
   <time name="orth">    0.01    0.01</time>
   <time name="total">    6.39    6.40</time>
   <energy>
    <i name="e_fr_energy">   -114.39475574 </i>
    <i name="e_wo_entrp">   -114.39475574 </i>
    <i name="e_0_energy">   -114.39475574 </i>
   </energy>
  </scstep>
  <scstep>
   <time name="diag">    0.31    0.31</time>
   <time name="diis">    2.02    2.02</time>
   <time name="orth">    0.01    0.01</time>
   <time name="total">    3.99    3.99</time>
   <energy>
    <i name="e_fr_energy">   -114.39659808 </i>
    <i name="e_wo_entrp">   -114.39659808 </i>
    <i name="e_0_energy">   -114.39659808 </i>
   </energy>
  </scstep>
  <scstep>
   <time name="diag">    0.83    0.83</time>
   <time name="diis">    2.20    2.20</time>
   <time name="orth">    0.01    0.01</time>
   <time name="total">    5.26    5.27</time>
   <energy>
    <i name="e_fr_energy">   -114.39876830 </i>
    <i name="e_wo_entrp">   -114.39876830 </i>
    <i name="e_0_energy">   -114.39876830 </i>
   </energy>
  </scstep>
  <scstep>
   <time name="diag">    0.34    0.34</time>
   <time name="diis">    2.06    2.06</time>
   <time name="orth">    0.01    0.01</time>
   <time name="total">    4.27    4.28</time>
   <energy>
    <i name="e_fr_energy">   -114.39926788 </i>
    <i name="e_wo_entrp">   -114.39926788 </i>
    <i name="e_0_energy">   -114.39926788 </i>
   </energy>
  </scstep>
  <scstep>
   <time name="diag">    0.37    0.37</time>
   <time name="diis">    2.00    2.00</time>
   <time name="orth">    0.01    0.01</time>
   <time name="total">    4.20    4.20</time>
   <energy>
    <i name="e_fr_energy">   -114.39958019 </i>
    <i name="e_wo_entrp">   -114.39958019 </i>
    <i name="e_0_energy">   -114.39958019 </i>
   </energy>
  </scstep>
  <scstep>
   <time name="diag">    0.73    0.73</time>
   <time name="diis">    2.12    2.12</time>
   <time name="orth">    0.03    0.03</time>
   <time name="total">    6.05    6.05</time>
   <energy>
    <i name="e_fr_energy">   -114.39964185 </i>
    <i name="e_wo_entrp">   -114.39964185 </i>
    <i name="e_0_energy">   -114.39964185 </i>
   </energy>
  </scstep>
  <scstep>
   <time name="diag">    0.52    0.52</time>
   <time name="diis">    1.52    1.52</time>
   <time name="orth">    0.01    0.01</time>
   <time name="total">    4.54    4.54</time>
   <energy>
    <i name="e_fr_energy">   -114.39970523 </i>
    <i name="e_wo_entrp">   -114.39970523 </i>
    <i name="e_0_energy">   -114.39970523 </i>
   </energy>
  </scstep>
  <scstep>
   <time name="diag">    0.37    0.37</time>
   <time name="diis">    1.13    1.13</time>
   <time name="orth">    0.01    0.01</time>
   <time name="total">    3.40    3.40</time>
   <energy>
    <i name="e_fr_energy">   -114.39972839 </i>
    <i name="e_wo_entrp">   -114.39972839 </i>
    <i name="e_0_energy">   -114.39972839 </i>
   </energy>
  </scstep>
  <scstep>
   <time name="diag">    0.36    0.36</time>
   <time name="diis">    1.14    1.14</time>
   <time name="orth">    0.02    0.02</time>
   <time name="total">    3.39    3.40</time>
   <energy>
    <i name="e_fr_energy">   -114.39974052 </i>
    <i name="e_wo_entrp">   -114.39974052 </i>
    <i name="e_0_energy">   -114.39974052 </i>
   </energy>
  </scstep>
  <scstep>
   <time name="diag">    0.33    0.33</time>
   <time name="diis">    0.94    0.94</time>
   <time name="orth">    0.01    0.01</time>
   <time name="total">    2.88    2.88</time>
   <energy>
    <i name="alphaZ">      3.36120243 </i>
    <i name="ewald">   3155.23395987 </i>
    <i name="hartreedc">  -4605.80983334 </i>
    <i name="XCdc">    170.13774401 </i>
    <i name="pawpsdc">   4256.07769179 </i>
    <i name="pawaedc">  -4264.37219405 </i>
    <i name="eentropy">     -0.00000000 </i>
    <i name="bandstr">   -634.82517075 </i>
    <i name="atom">   1805.79685712 </i>
    <i name="e_fr_energy">   -114.39974291 </i>
    <i name="e_wo_entrp">   -114.39974291 </i>
    <i name="e_0_energy">   -114.39974291 </i>
   </energy>
  </scstep>
  <structure>
   <crystal>
    <varray name="basis" >
     <v>      15.00000000       0.00000000       0.00000000 </v>
     <v>       0.00000000      15.00000000       0.00000000 </v>
     <v>       0.00000000       0.00000000      15.00000000 </v>
    </varray>
    <i name="volume">   3375.00000000 </i>
    <varray name="rec_basis" >
     <v>       0.06666667       0.00000000       0.00000000 </v>
     <v>       0.00000000       0.06666667       0.00000000 </v>
     <v>       0.00000000       0.00000000       0.06666667 </v>
    </varray>
   </crystal>
   <varray name="positions" >
    <v>       0.38018062       0.52768379       0.58890899 </v>
    <v>       0.39164218       0.43912391       0.60391137 </v>
    <v>       0.48231773       0.40538986       0.60892683 </v>
    <v>       0.45557001       0.58602520       0.59532481 </v>
    <v>       0.51935142       0.53994977       0.50011611 </v>
    <v>       0.52260453       0.43827079       0.50238157 </v>
    <v>       0.60474767       0.58252501       0.51309656 </v>
    <v>       0.46409358       0.39036739       0.44236112 </v>
    <v>       0.34180628       0.39216996       0.58197533 </v>
    <v>       0.52896079       0.43964814       0.65162998 </v>
    <v>       0.48702017       0.33348506       0.62174751 </v>
    <v>       0.32444029       0.55256624       0.54990342 </v>
    <v>       0.50513083       0.57433829       0.64739643 </v>
    <v>       0.44000423       0.65820519       0.59472567 </v>
    <v>       0.48439776       0.56739959       0.44206845 </v>
    <v>       0.59066360       0.41183142       0.50425627 </v>
    <v>       0.66546101       0.62635574       0.53441987 </v>
    <v>       0.41219702       0.34356700       0.40770188 </v>
   </varray>
  </structure>
  <varray name="forces" >
   <v>      -0.51371560      -0.61519442       0.41996758 </v>
   <v>      -0.33487462       0.57412696      -0.34864182 </v>
   <v>       0.40792310       0.07732773      -1.12032108 </v>
   <v>       1.12233091      -0.35348460      -1.13685829 </v>
   <v>      -0.19821311       1.04064270       0.81980222 </v>
   <v>      -0.51847258      -0.46486630       2.03184461 </v>
   <v>      -0.32526987       0.17443242      -0.05167324 </v>
   <v>       0.06351628      -0.27145862       0.07294151 </v>
   <v>      -0.51111475      -0.24097605       0.14527867 </v>
   <v>       0.28086793       0.33040444       0.50800396 </v>
   <v>       0.16472724       0.01512112      -0.46130946 </v>
   <v>      -0.61931661       0.01895656       0.43333948 </v>
   <v>      -0.18190382      -0.14029252       0.28340101 </v>
   <v>       0.39573093      -0.32519271      -0.75968899 </v>
   <v>       0.08273438      -0.08253005      -0.04749354 </v>
   <v>       0.08496097       0.07289945      -0.41539572 </v>
   <v>       0.42148729      -0.05023592      -0.07978269 </v>
   <v>       0.17860195       0.24031982      -0.29341423 </v>
  </varray>
  <varray name="stress" >
   <v>       0.38944735       0.75327317       0.43123625 </v>
   <v>       0.75327318      -1.79832567      -0.28722129 </v>
   <v>       0.43123625      -0.28722129      -2.52905284 </v>
  </varray>
  <energy>
   <i name="e_fr_energy">   -114.66309731 </i>
   <i name="e_wo_entrp">   -114.66309731 </i>
   <i name="e_0_energy">   -114.66309731 </i>
  </energy>
  <time name="totalsc">  139.27  140.31</time>
 </calculation>
 <calculation>
  <scstep>
   <time name="dav">    3.25    3.25</time>
   <time name="total">    5.52    5.53</time>
   <energy>
    <i name="alphaZ">      3.36120243 </i>
    <i name="ewald">   3159.22031736 </i>
    <i name="hartreedc">  -4610.52731826 </i>
    <i name="XCdc">    170.13382765 </i>
    <i name="pawpsdc">   4256.06460608 </i>
    <i name="pawaedc">  -4264.35911986 </i>
    <i name="eentropy">     -0.00000000 </i>
    <i name="bandstr">   -634.24810692 </i>
    <i name="atom">   1805.79685712 </i>
    <i name="e_fr_energy">   -114.55773440 </i>
    <i name="e_wo_entrp">   -114.55773440 </i>
    <i name="e_0_energy">   -114.55773440 </i>
   </energy>
  </scstep>
  <scstep>
   <time name="diag">    0.60    0.61</time>
   <time name="diis">    3.28    3.29</time>
   <time name="orth">    0.02    0.02</time>
   <time name="total">    6.17    6.21</time>
   <energy>
    <i name="e_fr_energy">   -114.56083711 </i>
    <i name="e_wo_entrp">   -114.56083711 </i>
    <i name="e_0_energy">   -114.56083711 </i>
   </energy>
  </scstep>
  <scstep>
   <time name="diag">    0.56    0.57</time>
   <time name="diis">    3.84    3.85</time>
   <time name="orth">    0.04    0.06</time>
   <time name="total">    6.72    6.80</time>
   <energy>
    <i name="e_fr_energy">   -114.56078937 </i>
    <i name="e_wo_entrp">   -114.56078937 </i>
    <i name="e_0_energy">   -114.56078937 </i>
   </energy>
  </scstep>
  <scstep>
   <time name="diag">    0.58    0.59</time>
   <time name="diis">    3.52    3.52</time>
   <time name="orth">    0.01    0.02</time>
   <time name="total">    6.32    6.51</time>
   <energy>
    <i name="e_fr_energy">   -114.56112132 </i>
    <i name="e_wo_entrp">   -114.56112132 </i>
    <i name="e_0_energy">   -114.56112132 </i>
   </energy>
  </scstep>
  <scstep>
   <time name="diag">    0.33    0.33</time>
   <time name="diis">    2.54    2.54</time>
   <time name="orth">    0.01    0.01</time>
   <time name="total">    4.59    4.60</time>
   <energy>
    <i name="e_fr_energy">   -114.56120067 </i>
    <i name="e_wo_entrp">   -114.56120067 </i>
    <i name="e_0_energy">   -114.56120067 </i>
   </energy>
  </scstep>
  <scstep>
   <time name="diag">    0.29    0.29</time>
   <time name="diis">    1.71    1.71</time>
   <time name="orth">    0.01    0.01</time>
   <time name="total">    3.54    3.55</time>
   <energy>
    <i name="e_fr_energy">   -114.56121868 </i>
    <i name="e_wo_entrp">   -114.56121868 </i>
    <i name="e_0_energy">   -114.56121868 </i>
   </energy>
  </scstep>
  <scstep>
   <time name="diag">    0.26    0.26</time>
   <time name="diis">    0.87    0.87</time>
   <time name="orth">    0.00    0.00</time>
   <time name="total">    2.35    2.35</time>
   <energy>
    <i name="alphaZ">      3.36120243 </i>
    <i name="ewald">   3159.22031736 </i>
    <i name="hartreedc">  -4610.14844443 </i>
    <i name="XCdc">    170.10337413 </i>
    <i name="pawpsdc">   4244.94450585 </i>
    <i name="pawaedc">  -4253.22824710 </i>
    <i name="eentropy">     -0.00000000 </i>
    <i name="bandstr">   -634.61078947 </i>
    <i name="atom">   1805.79685712 </i>
    <i name="e_fr_energy">   -114.56122410 </i>
    <i name="e_wo_entrp">   -114.56122410 </i>
    <i name="e_0_energy">   -114.56122410 </i>
   </energy>
  </scstep>
  <structure>
   <crystal>
    <varray name="basis" >
     <v>      15.00000000       0.00000000       0.00000000 </v>
     <v>       0.00000000      15.00000000       0.00000000 </v>
     <v>       0.00000000       0.00000000      15.00000000 </v>
    </varray>
    <i name="volume">   3375.00000000 </i>
    <varray name="rec_basis" >
     <v>       0.06666667       0.00000000       0.00000000 </v>
     <v>       0.00000000       0.06666667       0.00000000 </v>
     <v>       0.00000000       0.00000000       0.06666667 </v>
    </varray>
   </crystal>
   <varray name="positions" >
    <v>       0.37982004       0.52725637       0.58916281 </v>
    <v>       0.39139653       0.43950732       0.60366994 </v>
    <v>       0.48266311       0.40549691       0.60801092 </v>
    <v>       0.45639253       0.58572789       0.59443703 </v>
    <v>       0.51911588       0.54068492       0.50084813 </v>
    <v>       0.52217647       0.43793877       0.50392899 </v>
    <v>       0.60454020       0.58264161       0.51308835 </v>
    <v>       0.46411767       0.39020415       0.44246072 </v>
    <v>       0.34146032       0.39198141       0.58210821 </v>
    <v>       0.52911853       0.43987119       0.65199265 </v>
    <v>       0.48715730       0.33355404       0.62137258 </v>
    <v>       0.32401409       0.55259340       0.55018882 </v>
    <v>       0.50499061       0.57423208       0.64760480 </v>
    <v>       0.44031404       0.65793353       0.59417216 </v>
    <v>       0.48447182       0.56732922       0.44206852 </v>
    <v>       0.59072741       0.41189955       0.50395763 </v>
    <v>       0.66577774       0.62631961       0.53430462 </v>
    <v>       0.41234130       0.34373368       0.40748049 </v>
   </varray>
  </structure>
  <varray name="forces" >
   <v>      -0.38133489       0.05540945       0.19214987 </v>
   <v>      -0.31977299      -0.08740621      -0.30424436 </v>
   <v>       0.57710081       0.28763997      -0.91514741 </v>
   <v>       0.93075773      -0.48477842      -1.13939880 </v>
   <v>      -0.50745309       0.83711046       0.91056182 </v>
   <v>      -0.45645127      -0.50037093       1.80790624 </v>
   <v>       0.27035276       0.54384738       0.11905967 </v>
   <v>       0.24495120      -0.03845222       0.29044772 </v>
   <v>      -0.40682989      -0.12600557       0.20605178 </v>
   <v>       0.05941266       0.14784450       0.33060862 </v>
   <v>       0.15703837       0.06899799      -0.47708051 </v>
   <v>      -0.56076866      -0.00822342       0.50867145 </v>
   <v>      -0.19419295      -0.11572766       0.23844006 </v>
   <v>       0.42216659      -0.37272476      -0.75523046 </v>
   <v>       0.10687971      -0.11680192      -0.01351329 </v>
   <v>      -0.02092310       0.13525917      -0.37982700 </v>
   <v>       0.02111361      -0.33723646      -0.22794390 </v>
   <v>       0.05795339       0.11161866      -0.39151148 </v>
  </varray>
  <varray name="stress" >
   <v>      -0.03234893       0.55613378       0.30026689 </v>
   <v>       0.55613378      -1.89884647      -0.40737334 </v>
   <v>       0.30026689      -0.40737333      -2.68922694 </v>
  </varray>
  <energy>
   <i name="e_fr_energy">   -114.82391937 </i>
   <i name="e_wo_entrp">   -114.82391937 </i>
   <i name="e_0_energy">   -114.82391937 </i>
  </energy>
  <time name="totalsc">   56.08   56.41</time>
 </calculation>
 <calculation>
  <scstep>
   <time name="dav">    3.99    3.99</time>
   <time name="total">    7.25    7.26</time>
   <energy>
    <i name="alphaZ">      3.36120243 </i>
    <i name="ewald">   3163.91056344 </i>
    <i name="hartreedc">  -4614.99971646 </i>
    <i name="XCdc">    170.12320924 </i>
    <i name="pawpsdc">   4244.69114000 </i>
    <i name="pawaedc">  -4252.97488587 </i>
    <i name="eentropy">     -0.00000000 </i>
    <i name="bandstr">   -634.60384158 </i>
    <i name="atom">   1805.79685712 </i>
    <i name="e_fr_energy">   -114.69547168 </i>
    <i name="e_wo_entrp">   -114.69547168 </i>
    <i name="e_0_energy">   -114.69547168 </i>
   </energy>
  </scstep>
  <scstep>
   <time name="diag">    0.38    0.38</time>
   <time name="diis">    2.27    2.27</time>
   <time name="orth">    0.01    0.01</time>
   <time name="total">    5.76    5.78</time>
   <energy>
    <i name="e_fr_energy">   -114.69790808 </i>
    <i name="e_wo_entrp">   -114.69790808 </i>
    <i name="e_0_energy">   -114.69790808 </i>
   </energy>
  </scstep>
  <scstep>
   <time name="diag">    0.70    0.70</time>
   <time name="diis">    2.21    2.21</time>
   <time name="orth">    0.01    0.01</time>
   <time name="total">    6.14    6.15</time>
   <energy>
    <i name="e_fr_energy">   -114.69790482 </i>
    <i name="e_wo_entrp">   -114.69790482 </i>
    <i name="e_0_energy">   -114.69790482 </i>
   </energy>
  </scstep>
  <scstep>
   <time name="diag">    0.47    0.47</time>
   <time name="diis">    2.67    2.67</time>
   <time name="orth">    0.01    0.02</time>
   <time name="total">    6.06    6.07</time>
   <energy>
    <i name="e_fr_energy">   -114.69817261 </i>
    <i name="e_wo_entrp">   -114.69817261 </i>
    <i name="e_0_energy">   -114.69817261 </i>
   </energy>
  </scstep>
  <scstep>
   <time name="diag">    0.38    0.38</time>
   <time name="diis">    2.10    2.10</time>
   <time name="orth">    0.01    0.01</time>
   <time name="total">    4.24    4.24</time>
   <energy>
    <i name="e_fr_energy">   -114.69823063 </i>
    <i name="e_wo_entrp">   -114.69823063 </i>
    <i name="e_0_energy">   -114.69823063 </i>
   </energy>
  </scstep>
  <scstep>
   <time name="diag">    0.36    0.36</time>
   <time name="diis">    1.49    1.49</time>
   <time name="orth">    0.00    0.00</time>
   <time name="total">    3.50    3.51</time>
   <energy>
    <i name="e_fr_energy">   -114.69824358 </i>
    <i name="e_wo_entrp">   -114.69824358 </i>
    <i name="e_0_energy">   -114.69824358 </i>
   </energy>
  </scstep>
  <scstep>
   <time name="diag">    0.11    0.11</time>
   <time name="diis">    0.52    0.52</time>
   <time name="orth">    0.00    0.00</time>
   <time name="total">    1.37    1.38</time>
   <energy>
    <i name="e_fr_energy">   -114.69825551 </i>
    <i name="e_wo_entrp">   -114.69825551 </i>
    <i name="e_0_energy">   -114.69825551 </i>
   </energy>
  </scstep>
  <scstep>
   <time name="diag">    0.11    0.11</time>
   <time name="diis">    0.51    0.51</time>
   <time name="orth">    0.00    0.00</time>
   <time name="total">    1.24    1.24</time>
   <energy>
    <i name="alphaZ">      3.36120243 </i>
    <i name="ewald">   3163.91056344 </i>
    <i name="hartreedc">  -4614.98581201 </i>
    <i name="XCdc">    170.11600807 </i>
    <i name="pawpsdc">   4241.24241430 </i>
    <i name="pawaedc">  -4249.52377782 </i>
    <i name="eentropy">     -0.00000000 </i>
    <i name="bandstr">   -634.61571572 </i>
    <i name="atom">   1805.79685712 </i>
    <i name="e_fr_energy">   -114.69826020 </i>
    <i name="e_wo_entrp">   -114.69826020 </i>
    <i name="e_0_energy">   -114.69826020 </i>
   </energy>
  </scstep>
  <structure>
   <crystal>
    <varray name="basis" >
     <v>      15.00000000       0.00000000       0.00000000 </v>
     <v>       0.00000000      15.00000000       0.00000000 </v>
     <v>       0.00000000       0.00000000      15.00000000 </v>
    </varray>
    <i name="volume">   3375.00000000 </i>
    <varray name="rec_basis" >
     <v>       0.06666667       0.00000000       0.00000000 </v>
     <v>       0.00000000       0.06666667       0.00000000 </v>
     <v>       0.00000000       0.00000000       0.06666667 </v>
    </varray>
   </crystal>
   <varray name="positions" >
    <v>       0.37954379       0.52726559       0.58927851 </v>
    <v>       0.39115944       0.43946372       0.60345568 </v>
    <v>       0.48310893       0.40572981       0.60725857 </v>
    <v>       0.45708570       0.58535427       0.59356513 </v>
    <v>       0.51869875       0.54129178       0.50160608 </v>
    <v>       0.52180228       0.43757864       0.50530613 </v>
    <v>       0.60471864       0.58300306       0.51318396 </v>
    <v>       0.46426573       0.39018630       0.44269053 </v>
    <v>       0.34117923       0.39187483       0.58227339 </v>
    <v>       0.52914161       0.43997699       0.65223686 </v>
    <v>       0.48728542       0.33364293       0.62099819 </v>
    <v>       0.32362289       0.55259875       0.55053121 </v>
    <v>       0.50484575       0.57414308       0.64778072 </v>
    <v>       0.44063453       0.65764120       0.59362497 </v>
    <v>       0.48455866       0.56723814       0.44208065 </v>
    <v>       0.59071926       0.41200624       0.50368151 </v>
    <v>       0.66582455       0.62609346       0.53410725 </v>
    <v>       0.41240165       0.34381754       0.40719911 </v>
   </varray>
  </structure>
  <varray name="forces" >
   <v>      -0.26447092      -0.05359612       0.13239485 </v>
   <v>      -0.22645449       0.02897831      -0.27985521 </v>
   <v>       0.52280931       0.24745432      -0.76579344 </v>
   <v>       0.85334173      -0.45439268      -1.08524411 </v>
   <v>      -0.48225267       0.76746101       0.97395721 </v>
   <v>      -0.33756446      -0.40012374       1.58264308 </v>
   <v>      -0.47239022       0.01785963      -0.10624839 </v>
   <v>      -0.04194145      -0.23826890       0.16109241 </v>
   <v>      -0.41212080      -0.14452717       0.21217242 </v>
   <v>      -0.02696728       0.08198436       0.26692105 </v>
   <v>       0.17154468       0.14782897      -0.49059472 </v>
   <v>      -0.56885367       0.02145930       0.51710419 </v>
   <v>      -0.22700193      -0.10178947       0.17536382 </v>
   <v>       0.45656299      -0.42278828      -0.75349046 </v>
   <v>       0.12449705      -0.14611448       0.02385465 </v>
   <v>      -0.08279891       0.17780483      -0.33428613 </v>
   <v>       0.67923966       0.12756288      -0.01478335 </v>
   <v>       0.33482138       0.34320725      -0.21520787 </v>
  </varray>
  <varray name="stress" >
   <v>      -0.07905176       0.63746099       0.25410789 </v>
   <v>       0.63746098      -2.10889982      -0.41396046 </v>
   <v>       0.25410790      -0.41396046      -2.71086912 </v>
  </varray>
  <energy>
   <i name="e_fr_energy">   -114.96043065 </i>
   <i name="e_wo_entrp">   -114.96043065 </i>
   <i name="e_0_energy">   -114.96043065 </i>
  </energy>
  <time name="totalsc">   44.53   44.59</time>
 </calculation>
 <calculation>
  <scstep>
   <time name="dav">    2.16    2.16</time>
   <time name="total">    4.00    4.00</time>
   <energy>
    <i name="alphaZ">      3.36120243 </i>
    <i name="ewald">   3171.36643670 </i>
    <i name="hartreedc">  -4623.08181889 </i>
    <i name="XCdc">    170.14117479 </i>
    <i name="pawpsdc">   4241.27712661 </i>
    <i name="pawaedc">  -4249.55848391 </i>
    <i name="eentropy">     -0.00000000 </i>
    <i name="bandstr">   -634.19214245 </i>
    <i name="atom">   1805.79685712 </i>
    <i name="e_fr_energy">   -114.88964762 </i>
    <i name="e_wo_entrp">   -114.88964762 </i>
    <i name="e_0_energy">   -114.88964762 </i>
   </energy>
  </scstep>
  <scstep>
   <time name="diag">    0.37    0.37</time>
   <time name="diis">    2.29    2.29</time>
   <time name="orth">    0.01    0.01</time>
   <time name="total">    4.34    4.34</time>
   <energy>
    <i name="e_fr_energy">   -114.89648421 </i>
    <i name="e_wo_entrp">   -114.89648421 </i>
    <i name="e_0_energy">   -114.89648421 </i>
   </energy>
  </scstep>
  <scstep>
   <time name="diag">    0.38    0.38</time>
   <time name="diis">    2.22    2.22</time>
   <time name="orth">    0.01    0.01</time>
   <time name="total">    4.33    4.33</time>
   <energy>
    <i name="e_fr_energy">   -114.89670178 </i>
    <i name="e_wo_entrp">   -114.89670178 </i>
    <i name="e_0_energy">   -114.89670178 </i>
   </energy>
  </scstep>
  <scstep>
   <time name="diag">    0.38    0.38</time>
   <time name="diis">    2.58    2.58</time>
   <time name="orth">    0.02    0.02</time>
   <time name="total">    4.72    4.74</time>
   <energy>
    <i name="e_fr_energy">   -114.89750746 </i>
    <i name="e_wo_entrp">   -114.89750746 </i>
    <i name="e_0_energy">   -114.89750746 </i>
   </energy>
  </scstep>
  <scstep>
   <time name="diag">    0.37    0.37</time>
   <time name="diis">    2.52    2.52</time>
   <time name="orth">    0.01    0.01</time>
   <time name="total">    4.61    4.61</time>
   <energy>
    <i name="e_fr_energy">   -114.89758397 </i>
    <i name="e_wo_entrp">   -114.89758397 </i>
    <i name="e_0_energy">   -114.89758397 </i>
   </energy>
  </scstep>
  <scstep>
   <time name="diag">    0.37    0.37</time>
   <time name="diis">    2.66    2.66</time>
   <time name="orth">    0.01    0.01</time>
   <time name="total">    4.73    4.73</time>
   <energy>
    <i name="e_fr_energy">   -114.89764123 </i>
    <i name="e_wo_entrp">   -114.89764123 </i>
    <i name="e_0_energy">   -114.89764123 </i>
   </energy>
  </scstep>
  <scstep>
   <time name="diag">    0.34    0.34</time>
   <time name="diis">    1.32    1.32</time>
   <time name="orth">    0.01    0.01</time>
   <time name="total">    3.09    3.09</time>
   <energy>
    <i name="alphaZ">      3.36120243 </i>
    <i name="ewald">   3171.36643670 </i>
    <i name="hartreedc">  -4622.70316141 </i>
    <i name="XCdc">    170.10410893 </i>
    <i name="pawpsdc">   4229.26759664 </i>
    <i name="pawaedc">  -4237.53559340 </i>
    <i name="eentropy">     -0.00000000 </i>
    <i name="bandstr">   -634.55509467 </i>
    <i name="atom">   1805.79685712 </i>
    <i name="e_fr_energy">   -114.89764768 </i>
    <i name="e_wo_entrp">   -114.89764768 </i>
    <i name="e_0_energy">   -114.89764768 </i>
   </energy>
  </scstep>
  <structure>
   <crystal>
    <varray name="basis" >
     <v>      15.00000000       0.00000000       0.00000000 </v>
     <v>       0.00000000      15.00000000       0.00000000 </v>
     <v>       0.00000000       0.00000000      15.00000000 </v>
    </varray>
    <i name="volume">   3375.00000000 </i>
    <varray name="rec_basis" >
     <v>       0.06666667       0.00000000       0.00000000 </v>
     <v>       0.00000000       0.06666667       0.00000000 </v>
     <v>       0.00000000       0.00000000       0.06666667 </v>
    </varray>
   </crystal>
   <varray name="positions" >
    <v>       0.37914946       0.52720743       0.58944032 </v>
    <v>       0.39081700       0.43946978       0.60310089 </v>
    <v>       0.48383823       0.40610039       0.60607832 </v>
    <v>       0.45823039       0.58473121       0.59209823 </v>
    <v>       0.51800053       0.54229520       0.50295244 </v>
    <v>       0.52124703       0.43702503       0.50752019 </v>
    <v>       0.60448597       0.58325021       0.51318138 </v>
    <v>       0.46431829       0.39000710       0.44299064 </v>
    <v>       0.34068475       0.39168048       0.58256104 </v>
    <v>       0.52912287       0.44011256       0.65261182 </v>
    <v>       0.48751659       0.33384714       0.62034320 </v>
    <v>       0.32293469       0.55262734       0.55113807 </v>
    <v>       0.50457155       0.57399937       0.64803808 </v>
    <v>       0.44121377       0.65710118       0.59267646 </v>
    <v>       0.48472107       0.56705894       0.44212342 </v>
    <v>       0.59065724       0.41222214       0.50323471 </v>
    <v>       0.66638194       0.62603815       0.53392837 </v>
    <v>       0.41270471       0.34413227       0.40684017 </v>
   </varray>
  </structure>
  <varray name="forces" >
   <v>      -0.10404631      -0.06382224      -0.00551477 </v>
   <v>      -0.09132602       0.03373927      -0.24333348 </v>
   <v>       0.35115710       0.16231370      -0.40470562 </v>
   <v>       0.63762095      -0.38362785      -0.86442160 </v>
   <v>      -0.59454277       0.51089929       0.88303388 </v>
   <v>      -0.17296966      -0.27690855       0.99646075 </v>
   <v>       0.22242314       0.44834999       0.13707774 </v>
   <v>       0.14792641       0.02250290       0.42923681 </v>
   <v>      -0.37974299      -0.13694125       0.23950919 </v>
   <v>      -0.13810187      -0.00793430       0.17384516 </v>
   <v>       0.19014487       0.24127403      -0.50153626 </v>
   <v>      -0.54937453       0.05330066       0.54539952 </v>
   <v>      -0.27506571      -0.07842259       0.05521798 </v>
   <v>       0.50212507      -0.48387173      -0.75201506 </v>
   <v>       0.13637676      -0.19951472       0.11492175 </v>
   <v>      -0.17871004       0.23637551      -0.24631758 </v>
   <v>       0.10062353      -0.27126704      -0.22760896 </v>
   <v>       0.19548206       0.19355491      -0.32924945 </v>
  </varray>
  <varray name="stress" >
   <v>      -0.50012571       0.48359424      -0.00571605 </v>
   <v>       0.48359423      -2.46173386      -0.48870031 </v>
   <v>      -0.00571606      -0.48870031      -2.62729841 </v>
  </varray>
  <energy>
   <i name="e_fr_energy">   -115.15900012 </i>
   <i name="e_wo_entrp">   -115.15900012 </i>
   <i name="e_0_energy">   -115.15900012 </i>
  </energy>
  <time name="totalsc">   70.95   71.32</time>
 </calculation>
 <calculation>
  <scstep>
   <time name="dav">    5.33    5.53</time>
   <time name="total">    7.32    7.71</time>
   <energy>
    <i name="alphaZ">      3.36120243 </i>
    <i name="ewald">   3195.41210690 </i>
    <i name="hartreedc">  -4645.75744809 </i>
    <i name="XCdc">    170.27858428 </i>
    <i name="pawpsdc">   4228.62417518 </i>
    <i name="pawaedc">  -4236.89223235 </i>
    <i name="eentropy">     -0.00000000 </i>
    <i name="bandstr">   -635.90103967 </i>
    <i name="atom">   1805.79685712 </i>
    <i name="e_fr_energy">   -115.07779420 </i>
    <i name="e_wo_entrp">   -115.07779420 </i>
    <i name="e_0_energy">   -115.07779420 </i>
   </energy>
  </scstep>
  <scstep>
   <time name="diag">    0.60    0.62</time>
   <time name="diis">    3.66    3.81</time>
   <time name="orth">    0.01    0.03</time>
   <time name="total">    6.76    7.21</time>
   <energy>
    <i name="e_fr_energy">   -115.11950933 </i>
    <i name="e_wo_entrp">   -115.11950933 </i>
    <i name="e_0_energy">   -115.11950933 </i>
   </energy>
  </scstep>
  <scstep>
   <time name="diag">    0.72    0.72</time>
   <time name="diis">    2.97    2.99</time>
   <time name="orth">    0.01    0.02</time>
   <time name="total">    5.94    6.08</time>
   <energy>
    <i name="e_fr_energy">   -115.11767870 </i>
    <i name="e_wo_entrp">   -115.11767870 </i>
    <i name="e_0_energy">   -115.11767870 </i>
   </energy>
  </scstep>
  <scstep>
   <time name="diag">    0.57    0.57</time>
   <time name="diis">    3.60    3.64</time>
   <time name="orth">    0.01    0.01</time>
   <time name="total">    6.32    6.35</time>
   <energy>
    <i name="e_fr_energy">   -115.12180653 </i>
    <i name="e_wo_entrp">   -115.12180653 </i>
    <i name="e_0_energy">   -115.12180653 </i>
   </energy>
  </scstep>
  <scstep>
   <time name="diag">    0.92    0.93</time>
   <time name="diis">    3.42    3.43</time>
   <time name="orth">    0.01    0.01</time>
   <time name="total">    7.00    7.26</time>
   <energy>
    <i name="e_fr_energy">   -115.12235566 </i>
    <i name="e_wo_entrp">   -115.12235566 </i>
    <i name="e_0_energy">   -115.12235566 </i>
   </energy>
  </scstep>
  <scstep>
   <time name="diag">    0.48    0.57</time>
   <time name="diis">    4.46    4.56</time>
   <time name="orth">    0.03    0.05</time>
   <time name="total">    7.41    7.98</time>
   <energy>
    <i name="e_fr_energy">   -115.12263308 </i>
    <i name="e_wo_entrp">   -115.12263308 </i>
    <i name="e_0_energy">   -115.12263308 </i>
   </energy>
  </scstep>
  <scstep>
   <time name="diag">    1.03    1.04</time>
   <time name="diis">    4.66    4.73</time>
   <time name="orth">    0.03    0.04</time>
   <time name="total">    8.99    9.09</time>
   <energy>
    <i name="e_fr_energy">   -115.12265957 </i>
    <i name="e_wo_entrp">   -115.12265957 </i>
    <i name="e_0_energy">   -115.12265957 </i>
   </energy>
  </scstep>
  <scstep>
   <time name="diag">    0.38    0.38</time>
   <time name="diis">    1.86    1.86</time>
   <time name="orth">    0.01    0.01</time>
   <time name="total">    4.48    4.57</time>
   <energy>
    <i name="e_fr_energy">   -115.12273574 </i>
    <i name="e_wo_entrp">   -115.12273574 </i>
    <i name="e_0_energy">   -115.12273574 </i>
   </energy>
  </scstep>
  <scstep>
   <time name="diag">    0.22    0.24</time>
   <time name="diis">    1.12    1.18</time>
   <time name="orth">    0.01    0.01</time>
   <time name="total">    2.69    2.77</time>
   <energy>
    <i name="e_fr_energy">   -115.12275521 </i>
    <i name="e_wo_entrp">   -115.12275521 </i>
    <i name="e_0_energy">   -115.12275521 </i>
   </energy>
  </scstep>
  <scstep>
   <time name="diag">    0.19    0.22</time>
   <time name="diis">    0.80    1.01</time>
   <time name="orth">    0.01    0.01</time>
   <time name="total">    2.48    2.90</time>
   <energy>
    <i name="e_fr_energy">   -115.12281667 </i>
    <i name="e_wo_entrp">   -115.12281667 </i>
    <i name="e_0_energy">   -115.12281667 </i>
   </energy>
  </scstep>
  <scstep>
   <time name="diag">    0.22    0.30</time>
   <time name="diis">    0.78    0.78</time>
   <time name="orth">    0.00    0.00</time>
   <time name="total">    1.89    2.14</time>
   <energy>
    <i name="alphaZ">      3.36120243 </i>
    <i name="ewald">   3195.41210690 </i>
    <i name="hartreedc">  -4646.40570132 </i>
    <i name="XCdc">    170.25223001 </i>
    <i name="pawpsdc">   4247.93295288 </i>
    <i name="pawaedc">  -4256.19862174 </i>
    <i name="eentropy">     -0.00000000 </i>
    <i name="bandstr">   -635.27384990 </i>
    <i name="atom">   1805.79685712 </i>
    <i name="e_fr_energy">   -115.12282362 </i>
    <i name="e_wo_entrp">   -115.12282362 </i>
    <i name="e_0_energy">   -115.12282362 </i>
   </energy>
  </scstep>
  <structure>
   <crystal>
    <varray name="basis" >
     <v>      15.00000000       0.00000000       0.00000000 </v>
     <v>       0.00000000      15.00000000       0.00000000 </v>
     <v>       0.00000000       0.00000000      15.00000000 </v>
    </varray>
    <i name="volume">   3375.00000000 </i>
    <varray name="rec_basis" >
     <v>       0.06666667       0.00000000       0.00000000 </v>
     <v>       0.00000000       0.06666667       0.00000000 </v>
     <v>       0.00000000       0.00000000       0.06666667 </v>
    </varray>
   </crystal>
   <varray name="positions" >
    <v>       0.37841234       0.52697170       0.58962942 </v>
    <v>       0.39016438       0.43956400       0.60224433 </v>
    <v>       0.48547696       0.40693123       0.60356923 </v>
    <v>       0.46088040       0.58321298       0.58859395 </v>
    <v>       0.51601183       0.54451583       0.50640968 </v>
    <v>       0.52008283       0.43580596       0.51236348 </v>
    <v>       0.60443319       0.58419516       0.51338743 </v>
    <v>       0.46455166       0.38979566       0.44408109 </v>
    <v>       0.33944099       0.39117642       0.58335456 </v>
    <v>       0.52886668       0.44030134       0.65341628 </v>
    <v>       0.48816188       0.33456436       0.61860120 </v>
    <v>       0.32116474       0.55276503       0.55276499 </v>
    <v>       0.50377147       0.57366204       0.64849849 </v>
    <v>       0.44281432       0.65557139       0.59020629 </v>
    <v>       0.48517651       0.56649353       0.44238346 </v>
    <v>       0.59032097       0.41289999       0.50221427 </v>
    <v>       0.66739404       0.62559585       0.53327864 </v>
    <v>       0.41345626       0.34487521       0.40584805 </v>
   </varray>
  </structure>
  <varray name="forces" >
   <v>       0.17338279       0.16171294      -0.35789564 </v>
   <v>       0.12808233      -0.24722916      -0.16265420 </v>
   <v>      -0.43037870      -0.24917338       1.20802453 </v>
   <v>      -0.29384527      -0.00239642       0.32207060 </v>
   <v>       0.05363915      -0.09158558      -0.06367491 </v>
   <v>       0.61713039       0.31977355      -1.13179872 </v>
   <v>      -0.02439394       0.23475186       0.20171229 </v>
   <v>       0.00543664       0.10338082       0.57540169 </v>
   <v>      -0.21309006      -0.04425556       0.32539483 </v>
   <v>      -0.29834115      -0.15387788      -0.01842989 </v>
   <v>       0.21529038       0.30527678      -0.47259877 </v>
   <v>      -0.42671284       0.09315162       0.62702336 </v>
   <v>      -0.36128877      -0.03249676      -0.27766644 </v>
   <v>       0.55595367      -0.52486299      -0.73432718 </v>
   <v>       0.13782972      -0.30324568       0.40868689 </v>
   <v>      -0.38528122       0.33901213       0.02781235 </v>
   <v>       0.19605238      -0.18868845      -0.24115667 </v>
   <v>       0.35053451       0.28075216      -0.23592413 </v>
  </varray>
  <varray name="stress" >
   <v>      -1.00398598       0.21316048      -0.92362566 </v>
   <v>       0.21316048      -2.65644546      -0.63777358 </v>
   <v>      -0.92362566      -0.63777358      -1.60436499 </v>
  </varray>
  <energy>
   <i name="e_fr_energy">   -115.38264071 </i>
   <i name="e_wo_entrp">   -115.38264071 </i>
   <i name="e_0_energy">   -115.38264071 </i>
  </energy>
  <time name="totalsc">   76.65   79.77</time>
 </calculation>
 <calculation>
  <scstep>
   <time name="dav">    4.27    4.49</time>
   <time name="total">    6.77    7.06</time>
   <energy>
    <i name="alphaZ">      3.36120243 </i>
    <i name="ewald">   3197.14495311 </i>
    <i name="hartreedc">  -4647.65947444 </i>
    <i name="XCdc">    170.28490034 </i>
    <i name="pawpsdc">   4247.94752051 </i>
    <i name="pawaedc">  -4256.21329956 </i>
    <i name="eentropy">     -0.00000000 </i>
    <i name="bandstr">   -635.81985953 </i>
    <i name="atom">   1805.79685712 </i>
    <i name="e_fr_energy">   -115.15720001 </i>
    <i name="e_wo_entrp">   -115.15720001 </i>
    <i name="e_0_energy">   -115.15720001 </i>
   </energy>
  </scstep>
  <scstep>
   <time name="diag">    0.54    0.54</time>
   <time name="diis">    3.75    4.03</time>
   <time name="orth">    0.02    0.03</time>
   <time name="total">    6.28    6.56</time>
   <energy>
    <i name="e_fr_energy">   -115.15753423 </i>
    <i name="e_wo_entrp">   -115.15753423 </i>
    <i name="e_0_energy">   -115.15753423 </i>
   </energy>
  </scstep>
  <scstep>
   <time name="diag">    0.70    0.73</time>
   <time name="diis">    3.34    3.38</time>
   <time name="orth">    0.01    0.01</time>
   <time name="total">    6.52    6.68</time>
   <energy>
    <i name="e_fr_energy">   -115.15753563 </i>
    <i name="e_wo_entrp">   -115.15753563 </i>
    <i name="e_0_energy">   -115.15753563 </i>
   </energy>
  </scstep>
  <scstep>
   <time name="diag">    0.32    0.32</time>
   <time name="diis">    2.46    2.48</time>
   <time name="orth">    0.02    0.02</time>
   <time name="total">    4.54    4.56</time>
   <energy>
    <i name="e_fr_energy">   -115.15757137 </i>
    <i name="e_wo_entrp">   -115.15757137 </i>
    <i name="e_0_energy">   -115.15757137 </i>
   </energy>
  </scstep>
  <scstep>
   <time name="diag">    0.40    0.40</time>
   <time name="diis">    1.09    1.09</time>
   <time name="orth">    0.00    0.00</time>
   <time name="total">    3.20    3.34</time>
   <energy>
    <i name="e_fr_energy">   -115.15758162 </i>
    <i name="e_wo_entrp">   -115.15758162 </i>
    <i name="e_0_energy">   -115.15758162 </i>
   </energy>
  </scstep>
  <scstep>
   <time name="diag">    0.10    0.10</time>
   <time name="diis">    0.53    0.53</time>
   <time name="orth">    0.00    0.00</time>
   <time name="total">    1.25    1.25</time>
   <energy>
    <i name="alphaZ">      3.36120243 </i>
    <i name="ewald">   3197.14495311 </i>
    <i name="hartreedc">  -4647.98235813 </i>
    <i name="XCdc">    170.30489910 </i>
    <i name="pawpsdc">   4254.28457967 </i>
    <i name="pawaedc">  -4262.55457844 </i>
    <i name="eentropy">     -0.00000000 </i>
    <i name="bandstr">   -635.51314258 </i>
    <i name="atom">   1805.79685712 </i>
    <i name="e_fr_energy">   -115.15758772 </i>
    <i name="e_wo_entrp">   -115.15758772 </i>
    <i name="e_0_energy">   -115.15758772 </i>
   </energy>
  </scstep>
  <structure>
   <crystal>
    <varray name="basis" >
     <v>      15.00000000       0.00000000       0.00000000 </v>
     <v>       0.00000000      15.00000000       0.00000000 </v>
     <v>       0.00000000       0.00000000      15.00000000 </v>
    </varray>
    <i name="volume">   3375.00000000 </i>
    <varray name="rec_basis" >
     <v>       0.06666667       0.00000000       0.00000000 </v>
     <v>       0.00000000       0.06666667       0.00000000 </v>
     <v>       0.00000000       0.00000000       0.06666667 </v>
    </varray>
   </crystal>
   <varray name="positions" >
    <v>       0.37849830       0.52698340       0.58944476 </v>
    <v>       0.39021640       0.43950455       0.60223207 </v>
    <v>       0.48532321       0.40686150       0.60391505 </v>
    <v>       0.46073651       0.58320828       0.58872083 </v>
    <v>       0.51596550       0.54441499       0.50649900 </v>
    <v>       0.52024622       0.43595516       0.51192672 </v>
    <v>       0.60443472       0.58420969       0.51347705 </v>
    <v>       0.46449699       0.38987544       0.44430266 </v>
    <v>       0.33943645       0.39116541       0.58347200 </v>
    <v>       0.52873648       0.44023622       0.65336982 </v>
    <v>       0.48826107       0.33472763       0.61841828 </v>
    <v>       0.32109882       0.55281340       0.55289833 </v>
    <v>       0.50366615       0.57364454       0.64836643 </v>
    <v>       0.44299938       0.65538190       0.59002621 </v>
    <v>       0.48523841       0.56637506       0.44255418 </v>
    <v>       0.59018942       0.41303512       0.50224595 </v>
    <v>       0.66743511       0.62554021       0.53314167 </v>
    <v>       0.41356708       0.34494537       0.40580266 </v>
   </varray>
  </structure>
  <varray name="forces" >
   <v>       0.11364518       0.07428114      -0.28760043 </v>
   <v>       0.08684692      -0.17079829      -0.15816795 </v>
   <v>      -0.34842180      -0.11418168       0.85568207 </v>
   <v>      -0.22597026      -0.08589076       0.20585062 </v>
   <v>       0.12795159      -0.05655550      -0.06856079 </v>
   <v>       0.40851094       0.30488472      -0.74547004 </v>
   <v>      -0.13588874       0.16203991       0.16520098 </v>
   <v>      -0.03728331       0.04482184       0.44583492 </v>
   <v>      -0.21941459      -0.04960761       0.31718053 </v>
   <v>      -0.24176352      -0.10796515       0.05674055 </v>
   <v>       0.20558909       0.17188912      -0.42357150 </v>
   <v>      -0.42387500       0.09035623       0.60719654 </v>
   <v>      -0.32817203      -0.04417994      -0.20365284 </v>
   <v>       0.51550440      -0.42529563      -0.72124268 </v>
   <v>       0.11476877      -0.27151263       0.36828050 </v>
   <v>      -0.26225892       0.29880842      -0.01097350 </v>
   <v>       0.27432813      -0.13137085      -0.20887151 </v>
   <v>       0.37590314       0.31027665      -0.19385547 </v>
  </varray>
  <varray name="stress" >
   <v>      -0.84590327       0.21055631      -0.82792361 </v>
   <v>       0.21055631      -2.52004921      -0.61000680 </v>
   <v>      -0.82792361      -0.61000680      -1.60961553 </v>
  </varray>
  <energy>
   <i name="e_fr_energy">   -115.41736287 </i>
   <i name="e_wo_entrp">   -115.41736287 </i>
   <i name="e_0_energy">   -115.41736287 </i>
  </energy>
  <time name="totalsc">   37.35   38.25</time>
 </calculation>
 <calculation>
  <scstep>
   <time name="dav">    2.03    2.03</time>
   <time name="total">    3.81    3.81</time>
   <energy>
    <i name="alphaZ">      3.36120243 </i>
    <i name="ewald">   3207.20204581 </i>
    <i name="hartreedc">  -4656.82721025 </i>
    <i name="XCdc">    170.41885054 </i>
    <i name="pawpsdc">   4254.24069026 </i>
    <i name="pawaedc">  -4262.51073641 </i>
    <i name="eentropy">     -0.00000000 </i>
    <i name="bandstr">   -636.89294961 </i>
    <i name="atom">   1805.79685712 </i>
    <i name="e_fr_energy">   -115.21125011 </i>
    <i name="e_wo_entrp">   -115.21125011 </i>
    <i name="e_0_energy">   -115.21125011 </i>
   </energy>
  </scstep>
  <scstep>
   <time name="diag">    0.35    0.35</time>
   <time name="diis">    2.24    2.24</time>
   <time name="orth">    0.01    0.01</time>
   <time name="total">    4.27    4.28</time>
   <energy>
    <i name="e_fr_energy">   -115.21220423 </i>
    <i name="e_wo_entrp">   -115.21220423 </i>
    <i name="e_0_energy">   -115.21220423 </i>
   </energy>
  </scstep>
  <scstep>
   <time name="diag">    0.34    0.34</time>
   <time name="diis">    2.14    2.14</time>
   <time name="orth">    0.01    0.01</time>
   <time name="total">    4.19    4.19</time>
   <energy>
    <i name="e_fr_energy">   -115.21236844 </i>
    <i name="e_wo_entrp">   -115.21236844 </i>
    <i name="e_0_energy">   -115.21236844 </i>
   </energy>
  </scstep>
  <scstep>
   <time name="diag">    0.32    0.32</time>
   <time name="diis">    2.65    2.65</time>
   <time name="orth">    0.01    0.01</time>
   <time name="total">    4.64    4.64</time>
   <energy>
    <i name="e_fr_energy">   -115.21262567 </i>
    <i name="e_wo_entrp">   -115.21262567 </i>
    <i name="e_0_energy">   -115.21262567 </i>
   </energy>
  </scstep>
  <scstep>
   <time name="diag">    0.33    0.33</time>
   <time name="diis">    1.92    1.92</time>
   <time name="orth">    0.01    0.01</time>
   <time name="total">    3.83    3.83</time>
   <energy>
    <i name="e_fr_energy">   -115.21260628 </i>
    <i name="e_wo_entrp">   -115.21260628 </i>
    <i name="e_0_energy">   -115.21260628 </i>
   </energy>
  </scstep>
  <scstep>
   <time name="diag">    0.18    0.18</time>
   <time name="diis">    1.07    1.07</time>
   <time name="orth">    0.01    0.01</time>
   <time name="total">    2.21    2.21</time>
   <energy>
    <i name="e_fr_energy">   -115.21264292 </i>
    <i name="e_wo_entrp">   -115.21264292 </i>
    <i name="e_0_energy">   -115.21264292 </i>
   </energy>
  </scstep>
  <scstep>
   <time name="diag">    0.15    0.15</time>
   <time name="diis">    0.81    0.81</time>
   <time name="orth">    0.00    0.00</time>
   <time name="total">    1.70    1.71</time>
   <energy>
    <i name="alphaZ">      3.36120243 </i>
    <i name="ewald">   3207.20204581 </i>
    <i name="hartreedc">  -4657.57852600 </i>
    <i name="XCdc">    170.44201830 </i>
    <i name="pawpsdc">   4273.44138678 </i>
    <i name="pawaedc">  -4281.71942230 </i>
    <i name="eentropy">     -0.00000000 </i>
    <i name="bandstr">   -636.15819738 </i>
    <i name="atom">   1805.79685712 </i>
    <i name="e_fr_energy">   -115.21263524 </i>
    <i name="e_wo_entrp">   -115.21263524 </i>
    <i name="e_0_energy">   -115.21263524 </i>
   </energy>
  </scstep>
  <structure>
   <crystal>
    <varray name="basis" >
     <v>      15.00000000       0.00000000       0.00000000 </v>
     <v>       0.00000000      15.00000000       0.00000000 </v>
     <v>       0.00000000       0.00000000      15.00000000 </v>
    </varray>
    <i name="volume">   3375.00000000 </i>
    <varray name="rec_basis" >
     <v>       0.06666667       0.00000000       0.00000000 </v>
     <v>       0.00000000       0.06666667       0.00000000 </v>
     <v>       0.00000000       0.00000000       0.06666667 </v>
    </varray>
   </crystal>
   <varray name="positions" >
    <v>       0.37847555       0.52686200       0.58909756 </v>
    <v>       0.39015754       0.43944575       0.60199400 </v>
    <v>       0.48532278       0.40704152       0.60390119 </v>
    <v>       0.46097099       0.58275341       0.58820486 </v>
    <v>       0.51565274       0.54467242       0.50733683 </v>
    <v>       0.52018077       0.43612133       0.51230300 </v>
    <v>       0.60419870       0.58435149       0.51371311 </v>
    <v>       0.46435190       0.38992911       0.44492956 </v>
    <v>       0.33911324       0.39101855       0.58395543 </v>
    <v>       0.52842250       0.44017533       0.65357073 </v>
    <v>       0.48864603       0.33506349       0.61763391 </v>
    <v>       0.32049873       0.55296390       0.55363192 </v>
    <v>       0.50323570       0.57350814       0.64822248 </v>
    <v>       0.44380043       0.65470046       0.58895538 </v>
    <v>       0.48545776       0.56598228       0.44304295 </v>
    <v>       0.58996080       0.41349055       0.50206879 </v>
    <v>       0.66794805       0.62539858       0.53270380 </v>
    <v>       0.41411595       0.34537930       0.40551621 </v>
   </varray>
  </structure>
  <varray name="forces" >
   <v>       0.04157363       0.08713334      -0.25482724 </v>
   <v>       0.03177418      -0.19860322      -0.12138797 </v>
   <v>      -0.36331744      -0.11900894       0.83152022 </v>
   <v>      -0.37731255      -0.01979482       0.37720745 </v>
   <v>       0.31610576      -0.23223015      -0.37207328 </v>
   <v>       0.38930792       0.34735530      -0.78685937 </v>
   <v>       0.33701413       0.41433088       0.29188261 </v>
   <v>       0.19208896       0.27217812       0.51802938 </v>
   <v>      -0.18358109      -0.03203065       0.32160047 </v>
   <v>      -0.20767075      -0.07667893       0.10461055 </v>
   <v>       0.18093466       0.05130792      -0.35212160 </v>
   <v>      -0.37844233       0.08485074       0.59020063 </v>
   <v>      -0.28743638      -0.05828593      -0.15322675 </v>
   <v>       0.44166242      -0.28324814      -0.67754755 </v>
   <v>       0.06466990      -0.22369373       0.33238368 </v>
   <v>      -0.18949513       0.26740292       0.00793569 </v>
   <v>      -0.15155111      -0.38332606      -0.32188312 </v>
   <v>       0.14367520       0.10234136      -0.33544380 </v>
  </varray>
  <varray name="stress" >
   <v>      -0.74303581       0.06270144      -0.93765335 </v>
   <v>       0.06270144      -2.25037069      -0.57281658 </v>
   <v>      -0.93765335      -0.57281658      -1.21081889 </v>
  </varray>
  <energy>
   <i name="e_fr_energy">   -115.47197876 </i>
   <i name="e_wo_entrp">   -115.47197876 </i>
   <i name="e_0_energy">   -115.47197876 </i>
  </energy>
  <time name="totalsc">   43.66   44.07</time>
 </calculation>
 <calculation>
  <scstep>
   <time name="dav">    4.14    4.42</time>
   <time name="total">    6.25    6.71</time>
   <energy>
    <i name="alphaZ">      3.36120243 </i>
    <i name="ewald">   3224.54817447 </i>
    <i name="hartreedc">  -4672.69070209 </i>
    <i name="XCdc">    170.63764655 </i>
    <i name="pawpsdc">   4274.48169789 </i>
    <i name="pawaedc">  -4282.76000566 </i>
    <i name="eentropy">     -0.00000000 </i>
    <i name="bandstr">   -638.63564852 </i>
    <i name="atom">   1805.79685712 </i>
    <i name="e_fr_energy">   -115.26077780 </i>
    <i name="e_wo_entrp">   -115.26077780 </i>
    <i name="e_0_energy">   -115.26077780 </i>
   </energy>
  </scstep>
  <scstep>
   <time name="diag">    0.58    0.58</time>
   <time name="diis">    3.38    3.38</time>
   <time name="orth">    0.02    0.05</time>
   <time name="total">    6.19    6.24</time>
   <energy>
    <i name="e_fr_energy">   -115.26392457 </i>
    <i name="e_wo_entrp">   -115.26392457 </i>
    <i name="e_0_energy">   -115.26392457 </i>
   </energy>
  </scstep>
  <scstep>
   <time name="diag">    0.56    0.62</time>
   <time name="diis">    4.04    4.12</time>
   <time name="orth">    0.04    0.04</time>
   <time name="total">    6.84    7.02</time>
   <energy>
    <i name="e_fr_energy">   -115.26425773 </i>
    <i name="e_wo_entrp">   -115.26425773 </i>
    <i name="e_0_energy">   -115.26425773 </i>
   </energy>
  </scstep>
  <scstep>
   <time name="diag">    0.33    0.33</time>
   <time name="diis">    2.64    2.64</time>
   <time name="orth">    0.01    0.01</time>
   <time name="total">    4.81    4.82</time>
   <energy>
    <i name="e_fr_energy">   -115.26494777 </i>
    <i name="e_wo_entrp">   -115.26494777 </i>
    <i name="e_0_energy">   -115.26494777 </i>
   </energy>
  </scstep>
  <scstep>
   <time name="diag">    0.38    0.38</time>
   <time name="diis">    2.03    2.03</time>
   <time name="orth">    0.01    0.01</time>
   <time name="total">    4.12    4.12</time>
   <energy>
    <i name="e_fr_energy">   -115.26509053 </i>
    <i name="e_wo_entrp">   -115.26509053 </i>
    <i name="e_0_energy">   -115.26509053 </i>
   </energy>
  </scstep>
  <scstep>
   <time name="diag">    0.30    0.30</time>
   <time name="diis">    1.66    1.66</time>
   <time name="orth">    0.00    0.00</time>
   <time name="total">    3.43    3.43</time>
   <energy>
    <i name="e_fr_energy">   -115.26503202 </i>
    <i name="e_wo_entrp">   -115.26503202 </i>
    <i name="e_0_energy">   -115.26503202 </i>
   </energy>
  </scstep>
  <scstep>
   <time name="diag">    0.18    0.18</time>
   <time name="diis">    0.86    0.86</time>
   <time name="orth">    0.00    0.00</time>
   <time name="total">    1.97    1.98</time>
   <energy>
    <i name="e_fr_energy">   -115.26504606 </i>
    <i name="e_wo_entrp">   -115.26504606 </i>
    <i name="e_0_energy">   -115.26504606 </i>
   </energy>
  </scstep>
  <scstep>
   <time name="diag">    0.15    0.15</time>
   <time name="diis">    0.68    0.68</time>
   <time name="orth">    0.00    0.00</time>
   <time name="total">    1.71    1.71</time>
   <energy>
    <i name="e_fr_energy">   -115.26507416 </i>
    <i name="e_wo_entrp">   -115.26507416 </i>
    <i name="e_0_energy">   -115.26507416 </i>
   </energy>
  </scstep>
  <scstep>
   <time name="diag">    0.23    0.23</time>
   <time name="diis">    1.08    1.12</time>
   <time name="orth">    0.01    0.01</time>
   <time name="total">    2.53    2.57</time>
   <energy>
    <i name="e_fr_energy">   -115.26512750 </i>
    <i name="e_wo_entrp">   -115.26512750 </i>
    <i name="e_0_energy">   -115.26512750 </i>
   </energy>
  </scstep>
  <scstep>
   <time name="diag">    0.25    0.34</time>
   <time name="diis">    0.98    1.02</time>
   <time name="orth">    0.01    0.01</time>
   <time name="total">    2.27    2.43</time>
   <energy>
    <i name="alphaZ">      3.36120243 </i>
    <i name="ewald">   3224.54817447 </i>
    <i name="hartreedc">  -4674.06628320 </i>
    <i name="XCdc">    170.68074262 </i>
    <i name="pawpsdc">   4315.83123312 </i>
    <i name="pawaedc">  -4324.12697495 </i>
    <i name="eentropy">     -0.00000000 </i>
    <i name="bandstr">   -637.29008240 </i>
    <i name="atom">   1805.79685712 </i>
    <i name="e_fr_energy">   -115.26513079 </i>
    <i name="e_wo_entrp">   -115.26513079 </i>
    <i name="e_0_energy">   -115.26513079 </i>
   </energy>
  </scstep>
  <structure>
   <crystal>
    <varray name="basis" >
[...]
   <v>      -0.00191426      -0.00245479       0.00499291 </v>
   <v>       0.00316538      -0.00560154      -0.00673167 </v>
   <v>       0.00001152       0.00208496       0.00664300 </v>
   <v>       0.00585748       0.00347565      -0.01406842 </v>
   <v>       0.00636450       0.00098491      -0.02355975 </v>
   <v>      -0.00630389       0.00139807       0.01409058 </v>
   <v>       0.00434989       0.00144189      -0.01575431 </v>
   <v>      -0.00216037       0.00279240      -0.01395941 </v>
   <v>      -0.00660630      -0.00163911       0.00647265 </v>
   <v>      -0.00953001      -0.00337577       0.02509603 </v>
   <v>      -0.00110806      -0.00818944       0.01474537 </v>
   <v>       0.00971997      -0.00267320      -0.00765195 </v>
  </varray>
  <varray name="stress" >
   <v>      -1.14097114      -0.01512584       0.02388535 </v>
   <v>      -0.01512584      -1.14362420       0.02696783 </v>
   <v>       0.02388535       0.02696783      -1.23443668 </v>
  </varray>
  <energy>
   <i name="e_fr_energy">   -114.23194384 </i>
   <i name="e_wo_entrp">   -114.23194384 </i>
   <i name="e_0_energy">   -114.23194384 </i>
  </energy>
  <time name="totalsc">   33.00   34.31</time>
 </calculation>
 <calculation>
  <scstep>
   <time name="dav">    3.11    3.20</time>
   <time name="total">    5.02    5.18</time>
   <energy>
    <i name="alphaZ">      3.36120243 </i>
    <i name="ewald">   2941.93395611 </i>
    <i name="hartreedc">  -4393.35445174 </i>
    <i name="XCdc">    169.47739673 </i>
    <i name="pawpsdc">   4311.41684628 </i>
    <i name="pawaedc">  -4319.73967848 </i>
    <i name="eentropy">     -0.00000000 </i>
    <i name="bandstr">   -632.84304536 </i>
    <i name="atom">   1805.79685712 </i>
    <i name="e_fr_energy">   -113.95091691 </i>
    <i name="e_wo_entrp">   -113.95091691 </i>
    <i name="e_0_energy">   -113.95091691 </i>
   </energy>
  </scstep>
  <scstep>
   <time name="diag">    0.55    0.55</time>
   <time name="diis">    2.08    2.08</time>
   <time name="orth">    0.02    0.02</time>
   <time name="total">    4.45    4.45</time>
   <energy>
    <i name="alphaZ">      3.36120243 </i>
    <i name="ewald">   2941.93395611 </i>
    <i name="hartreedc">  -4393.35910260 </i>
    <i name="XCdc">    169.47750180 </i>
    <i name="pawpsdc">   4311.50835022 </i>
    <i name="pawaedc">  -4319.83121004 </i>
    <i name="eentropy">     -0.00000000 </i>
    <i name="bandstr">   -632.83847328 </i>
    <i name="atom">   1805.79685712 </i>
    <i name="e_fr_energy">   -113.95091822 </i>
    <i name="e_wo_entrp">   -113.95091822 </i>
    <i name="e_0_energy">   -113.95091822 </i>
   </energy>
  </scstep>
  <structure>
   <crystal>
    <varray name="basis" >
     <v>      15.00000000       0.00000000       0.00000000 </v>
     <v>       0.00000000      15.00000000       0.00000000 </v>
     <v>       0.00000000       0.00000000      15.00000000 </v>
    </varray>
    <i name="volume">   3375.00000000 </i>
    <varray name="rec_basis" >
     <v>       0.06666667       0.00000000       0.00000000 </v>
     <v>       0.00000000       0.06666667       0.00000000 </v>
     <v>       0.00000000       0.00000000       0.06666667 </v>
    </varray>
   </crystal>
   <varray name="positions" >
    <v>       0.37496063       0.52952861       0.59873220 </v>
    <v>       0.38824760       0.43739540       0.61087847 </v>
    <v>       0.47246677       0.40126369       0.62257192 </v>
    <v>       0.44464951       0.58968624       0.60131765 </v>
    <v>       0.53377368       0.53554854       0.48632139 </v>
    <v>       0.53477574       0.44170538       0.49187299 </v>
    <v>       0.61082115       0.58501848       0.51060596 </v>
    <v>       0.47731693       0.39195901       0.43490712 </v>
    <v>       0.33283772       0.39253022       0.59594586 </v>
    <v>       0.52561284       0.43940470       0.65435478 </v>
    <v>       0.48101874       0.32901526       0.62397735 </v>
    <v>       0.31011716       0.55163082       0.57384216 </v>
    <v>       0.50341560       0.57721309       0.64220965 </v>
    <v>       0.43439163       0.65925455       0.58274831 </v>
    <v>       0.48893913       0.56767357       0.43904539 </v>
    <v>       0.59634675       0.40843141       0.51177735 </v>
    <v>       0.67369916       0.62632890       0.53162990 </v>
    <v>       0.42896208       0.35192889       0.38852868 </v>
   </varray>
  </structure>
  <varray name="forces" >
   <v>      -0.00324820       0.00734311       0.01234684 </v>
   <v>       0.00230807      -0.00005182       0.01021562 </v>
   <v>      -0.00927303      -0.00073227       0.01879812 </v>
   <v>      -0.01824566       0.01058779       0.01951480 </v>
   <v>       0.01670143      -0.00968749      -0.02613704 </v>
   <v>       0.01227728       0.00328131      -0.02655505 </v>
   <v>      -0.00112345      -0.00300716       0.00388993 </v>
   <v>       0.00521352      -0.00386608      -0.00505414 </v>
   <v>       0.00035621       0.00245594       0.00673077 </v>
   <v>       0.00613728       0.00353312      -0.01297725 </v>
   <v>       0.00591846       0.00143757      -0.02178079 </v>
   <v>      -0.00601149       0.00123622       0.01409468 </v>
   <v>       0.00400216       0.00231738      -0.01477754 </v>
   <v>      -0.00299422       0.00355693      -0.01226999 </v>
   <v>      -0.00587024      -0.00103183       0.00443800 </v>
   <v>      -0.00889654      -0.00347669       0.02341695 </v>
   <v>      -0.00244421      -0.00791525       0.01684374 </v>
   <v>       0.00519261      -0.00598077      -0.01073766 </v>
  </varray>
  <varray name="stress" >
   <v>      -1.14051965      -0.01498770       0.02489388 </v>
   <v>      -0.01498770      -1.14053567       0.02809717 </v>
   <v>       0.02489388       0.02809716      -1.22898950 </v>
  </varray>
  <energy>
   <i name="e_fr_energy">   -114.23199341 </i>
   <i name="e_wo_entrp">   -114.23199341 </i>
   <i name="e_0_energy">   -114.23199341 </i>
  </energy>
  <time name="totalsc">   21.99   22.59</time>
 </calculation>
 <calculation>
  <scstep>
   <time name="dav">    3.35    3.89</time>
   <time name="total">    5.35    5.99</time>
   <energy>
    <i name="alphaZ">      3.36120243 </i>
    <i name="ewald">   2941.88496513 </i>
    <i name="hartreedc">  -4393.31183260 </i>
    <i name="XCdc">    169.47773865 </i>
    <i name="pawpsdc">   4311.63413067 </i>
    <i name="pawaedc">  -4319.95705730 </i>
    <i name="eentropy">     -0.00000000 </i>
    <i name="bandstr">   -632.83695826 </i>
    <i name="atom">   1805.79685712 </i>
    <i name="e_fr_energy">   -113.95095415 </i>
    <i name="e_wo_entrp">   -113.95095415 </i>
    <i name="e_0_energy">   -113.95095415 </i>
   </energy>
  </scstep>
  <scstep>
   <time name="diag">    0.48    0.53</time>
   <time name="diis">    1.61    1.67</time>
   <time name="orth">    0.01    0.01</time>
   <time name="total">    3.76    3.94</time>
   <energy>
    <i name="alphaZ">      3.36120243 </i>
    <i name="ewald">   2941.88496513 </i>
    <i name="hartreedc">  -4393.31339082 </i>
    <i name="XCdc">    169.47778915 </i>
    <i name="pawpsdc">   4311.69403970 </i>
    <i name="pawaedc">  -4320.01698924 </i>
    <i name="eentropy">     -0.00000000 </i>
    <i name="bandstr">   -632.83542886 </i>
    <i name="atom">   1805.79685712 </i>
    <i name="e_fr_energy">   -113.95095539 </i>
    <i name="e_wo_entrp">   -113.95095539 </i>
    <i name="e_0_energy">   -113.95095539 </i>
   </energy>
  </scstep>
  <structure>
   <crystal>
    <varray name="basis" >
     <v>      15.00000000       0.00000000       0.00000000 </v>
     <v>       0.00000000      15.00000000       0.00000000 </v>
     <v>       0.00000000       0.00000000      15.00000000 </v>
    </varray>
    <i name="volume">   3375.00000000 </i>
    <varray name="rec_basis" >
     <v>       0.06666667       0.00000000       0.00000000 </v>
     <v>       0.00000000       0.06666667       0.00000000 </v>
     <v>       0.00000000       0.00000000       0.06666667 </v>
    </varray>
   </crystal>
   <varray name="positions" >
    <v>       0.37495882       0.52953209       0.59873815 </v>
    <v>       0.38824883       0.43739581       0.61088296 </v>
    <v>       0.47246395       0.40126427       0.62257764 </v>
    <v>       0.44464188       0.58969095       0.60132481 </v>
    <v>       0.53377931       0.53554387       0.48631208 </v>
    <v>       0.53477910       0.44170649       0.49186426 </v>
    <v>       0.61081932       0.58501632       0.51060976 </v>
    <v>       0.47731875       0.39195704       0.43490588 </v>
    <v>       0.33283793       0.39253142       0.59595081 </v>
    <v>       0.52561618       0.43940662       0.65434780 </v>
    <v>       0.48102287       0.32901692       0.62396446 </v>
    <v>       0.31011344       0.55163208       0.57385127 </v>
    <v>       0.50341737       0.57721488       0.64220213 </v>
    <v>       0.43439034       0.65925604       0.58274161 </v>
    <v>       0.48893853       0.56767178       0.43904511 </v>
    <v>       0.59634242       0.40842991       0.51178699 </v>
    <v>       0.67369750       0.62632409       0.53163876 </v>
    <v>       0.42896617       0.35192612       0.38852256 </v>
   </varray>
  </structure>
  <varray name="forces" >
   <v>      -0.00343697       0.00738050       0.01254865 </v>
   <v>       0.00149708      -0.00027634       0.01050258 </v>
   <v>      -0.01008510      -0.00122195       0.01909143 </v>
   <v>      -0.01867706       0.01086405       0.02004712 </v>
   <v>       0.01737701      -0.00994281      -0.02698152 </v>
   <v>       0.01355491       0.00362742      -0.02684566 </v>
   <v>      -0.00027897      -0.00265545       0.00372082 </v>
   <v>       0.00346981      -0.00522011      -0.00710060 </v>
   <v>       0.00038139       0.00241005       0.00655417 </v>
   <v>       0.00608835       0.00351839      -0.01301825 </v>
   <v>       0.00559298       0.00114303      -0.02120268 </v>
   <v>      -0.00604315       0.00122403       0.01387512 </v>
   <v>       0.00398601       0.00226303      -0.01479951 </v>
   <v>      -0.00333642       0.00365323      -0.01181604 </v>
   <v>      -0.00605763      -0.00084093       0.00437571 </v>
   <v>      -0.00883504      -0.00358980       0.02336055 </v>
   <v>      -0.00237533      -0.00795590       0.01627018 </v>
   <v>       0.00717812      -0.00438043      -0.00858206 </v>
  </varray>
  <varray name="stress" >
   <v>      -1.14031501      -0.01541653       0.02345595 </v>
   <v>      -0.01541654      -1.13997025       0.02745903 </v>
   <v>       0.02345595       0.02745903      -1.22778191 </v>
  </varray>
  <energy>
   <i name="e_fr_energy">   -114.23203740 </i>
   <i name="e_wo_entrp">   -114.23203740 </i>
   <i name="e_0_energy">   -114.23203740 </i>
  </energy>
  <time name="totalsc">   20.14   21.26</time>
 </calculation>
 <calculation>
  <scstep>
   <time name="dav">    2.64    2.64</time>
   <time name="total">    5.06    5.21</time>
   <energy>
    <i name="alphaZ">      3.36120243 </i>
    <i name="ewald">   2942.04157545 </i>
    <i name="hartreedc">  -4393.39690798 </i>
    <i name="XCdc">    169.48275589 </i>
    <i name="pawpsdc">   4311.77293020 </i>
    <i name="pawaedc">  -4320.09590318 </i>
    <i name="eentropy">     -0.00000000 </i>
    <i name="bandstr">   -632.91379178 </i>
    <i name="atom">   1805.79685712 </i>
    <i name="e_fr_energy">   -113.95128185 </i>
    <i name="e_wo_entrp">   -113.95128185 </i>
    <i name="e_0_energy">   -113.95128185 </i>
   </energy>
  </scstep>
  <scstep>
   <time name="diag">    0.47    0.47</time>
   <time name="diis">    3.03    3.03</time>
   <time name="orth">    0.01    0.01</time>
   <time name="total">    5.70    5.73</time>
   <energy>
    <i name="e_fr_energy">   -113.95130910 </i>
    <i name="e_wo_entrp">   -113.95130910 </i>
    <i name="e_0_energy">   -113.95130910 </i>
   </energy>
  </scstep>
  <scstep>
   <time name="diag">    0.45    0.46</time>
   <time name="diis">    5.05    5.06</time>
   <time name="orth">    0.02    0.02</time>
   <time name="total">    7.58    7.75</time>
   <energy>
    <i name="e_fr_energy">   -113.95132575 </i>
    <i name="e_wo_entrp">   -113.95132575 </i>
    <i name="e_0_energy">   -113.95132575 </i>
   </energy>
  </scstep>
  <scstep>
   <time name="diag">    0.40    0.40</time>
   <time name="diis">    1.25    1.25</time>
   <time name="orth">    0.01    0.01</time>
   <time name="total">    3.27    3.32</time>
   <energy>
    <i name="alphaZ">      3.36120243 </i>
    <i name="ewald">   2942.04157545 </i>
    <i name="hartreedc">  -4393.43084218 </i>
    <i name="XCdc">    169.48434185 </i>
    <i name="pawpsdc">   4313.27176369 </i>
    <i name="pawaedc">  -4321.59549616 </i>
    <i name="eentropy">     -0.00000000 </i>
    <i name="bandstr">   -632.88073177 </i>
    <i name="atom">   1805.79685712 </i>
    <i name="e_fr_energy">   -113.95132958 </i>
    <i name="e_wo_entrp">   -113.95132958 </i>
    <i name="e_0_energy">   -113.95132958 </i>
   </energy>
  </scstep>
  <structure>
   <crystal>
    <varray name="basis" >
     <v>      15.00000000       0.00000000       0.00000000 </v>
     <v>       0.00000000      15.00000000       0.00000000 </v>
     <v>       0.00000000       0.00000000      15.00000000 </v>
    </varray>
    <i name="volume">   3375.00000000 </i>
    <varray name="rec_basis" >
     <v>       0.06666667       0.00000000       0.00000000 </v>
     <v>       0.00000000       0.06666667       0.00000000 </v>
     <v>       0.00000000       0.00000000       0.06666667 </v>
    </varray>
   </crystal>
   <varray name="positions" >
    <v>       0.37493030       0.52956965       0.59880372 </v>
    <v>       0.38824170       0.43739963       0.61092634 </v>
    <v>       0.47242303       0.40126962       0.62260168 </v>
    <v>       0.44457891       0.58971923       0.60135980 </v>
    <v>       0.53382382       0.53550358       0.48626431 </v>
    <v>       0.53481356       0.44172749       0.49183081 </v>
    <v>       0.61079500       0.58501275       0.51066259 </v>
    <v>       0.47735197       0.39193190       0.43493109 </v>
    <v>       0.33281992       0.39254829       0.59599444 </v>
    <v>       0.52564593       0.43943105       0.65422661 </v>
    <v>       0.48109300       0.32903559       0.62370422 </v>
    <v>       0.31006114       0.55165500       0.57396681 </v>
    <v>       0.50346821       0.57719069       0.64205299 </v>
    <v>       0.43445079       0.65923958       0.58255464 </v>
    <v>       0.48884600       0.56766052       0.43916334 </v>
    <v>       0.59626544       0.40843305       0.51204487 </v>
    <v>       0.67369580       0.62627427       0.53170232 </v>
    <v>       0.42904958       0.35191559       0.38847767 </v>
   </varray>
  </structure>
  <varray name="forces" >
   <v>      -0.00543831       0.00316467       0.01435362 </v>
   <v>      -0.00349283       0.00309813       0.01248349 </v>
   <v>      -0.00623595      -0.00443994       0.01882384 </v>
   <v>      -0.01414473       0.01525435       0.01928711 </v>
   <v>       0.01750324      -0.00424137      -0.03177954 </v>
   <v>       0.01655529      -0.00264266      -0.02934334 </v>
   <v>       0.00052632      -0.00688283      -0.00170015 </v>
   <v>       0.00256541      -0.00732868      -0.01691217 </v>
   <v>       0.00071981       0.00232002       0.00526039 </v>
   <v>       0.00457527       0.00151756      -0.00903685 </v>
   <v>       0.00109379      -0.00053614      -0.01015607 </v>
   <v>      -0.00548059       0.00060100       0.01178374 </v>
   <v>       0.00170130       0.00454174      -0.01115434 </v>
   <v>      -0.00885827       0.00596490      -0.00290085 </v>
   <v>      -0.00424642       0.00154882      -0.00209978 </v>
   <v>      -0.00593597      -0.00554688       0.01590538 </v>
   <v>       0.00039221      -0.00299965       0.01973649 </v>
   <v>       0.00820044      -0.00339303      -0.00255097 </v>
  </varray>
  <varray name="stress" >
   <v>      -1.13049316      -0.01462081       0.01239050 </v>
   <v>      -0.01462081      -1.12283790       0.02646638 </v>
   <v>       0.01239050       0.02646638      -1.20567516 </v>
  </varray>
  <energy>
   <i name="e_fr_energy">   -114.23246965 </i>
   <i name="e_wo_entrp">   -114.23246965 </i>
   <i name="e_0_energy">   -114.23246965 </i>
  </energy>
  <time name="totalsc">   32.85   33.92</time>
  <eigenvalues>
   <array>
    <dimension dim="1">band</dimension>
    <dimension dim="2">kpoint</dimension>
    <dimension dim="3">spin</dimension>
    <field>eigene</field>
    <field>occ</field>
    <set>
     <set comment="spin 1">
      <set comment="kpoint 1">
       <r>  -22.6497    1.0000 </r>
       <r>  -22.4794    1.0000 </r>
       <r>  -21.0434    1.0000 </r>
       <r>  -20.2941    1.0000 </r>
       <r>  -18.5898    1.0000 </r>
       <r>  -17.2954    1.0000 </r>
       <r>  -16.1069    1.0000 </r>
       <r>  -13.7937    1.0000 </r>
       <r>  -13.3626    1.0000 </r>
       <r>  -13.0635    1.0000 </r>
       <r>  -12.5716    1.0000 </r>
       <r>  -11.3605    1.0000 </r>
       <r>  -10.9901    1.0000 </r>
       <r>  -10.4866    1.0000 </r>
       <r>  -10.3418    1.0000 </r>
       <r>   -9.2723    1.0000 </r>
       <r>   -9.2202    1.0000 </r>
       <r>   -8.8596    1.0000 </r>
       <r>   -8.6039    1.0000 </r>
       <r>   -8.4589    1.0000 </r>
       <r>   -8.2811    1.0000 </r>
       <r>   -8.1739    1.0000 </r>
       <r>   -8.0809    1.0000 </r>
       <r>   -6.5864    1.0000 </r>
       <r>   -6.4742    1.0000 </r>
       <r>   -2.8430    0.0000 </r>
       <r>   -2.5558    0.0000 </r>
       <r>   -0.8442    0.0000 </r>
       <r>   -0.6782    0.0000 </r>
       <r>   -0.3753    0.0000 </r>
       <r>   -0.1721    0.0000 </r>
       <r>    0.0559    0.0000 </r>
       <r>    0.1225    0.0000 </r>
       <r>    0.2970    0.0000 </r>
       <r>    0.4307    0.0000 </r>
      </set>
     </set>
    </set>
   </array>
  </eigenvalues>
  <separator name="orbital magnetization" >
   <v name="MAGDIPOLOUT">      0.00000000      0.00000000      0.00000000</v>
  </separator>
 </calculation>
 <structure name="finalpos" >
  <crystal>
   <varray name="basis" >
    <v>      15.00000000       0.00000000       0.00000000 </v>
    <v>       0.00000000      15.00000000       0.00000000 </v>
    <v>       0.00000000       0.00000000      15.00000000 </v>
   </varray>
   <i name="volume">   3375.00000000 </i>
   <varray name="rec_basis" >
    <v>       0.06666667       0.00000000       0.00000000 </v>
    <v>       0.00000000       0.06666667       0.00000000 </v>
    <v>       0.00000000       0.00000000       0.06666667 </v>
   </varray>
  </crystal>
  <varray name="positions" >
   <v>       0.37493030       0.52956965       0.59880372 </v>
   <v>       0.38824170       0.43739963       0.61092634 </v>
   <v>       0.47242303       0.40126962       0.62260168 </v>
   <v>       0.44457891       0.58971923       0.60135980 </v>
   <v>       0.53382382       0.53550358       0.48626431 </v>
   <v>       0.53481356       0.44172749       0.49183081 </v>
   <v>       0.61079500       0.58501275       0.51066259 </v>
   <v>       0.47735197       0.39193190       0.43493109 </v>
   <v>       0.33281992       0.39254829       0.59599444 </v>
   <v>       0.52564593       0.43943105       0.65422661 </v>
   <v>       0.48109300       0.32903559       0.62370422 </v>
   <v>       0.31006114       0.55165500       0.57396681 </v>
   <v>       0.50346821       0.57719069       0.64205299 </v>
   <v>       0.43445079       0.65923958       0.58255464 </v>
   <v>       0.48884600       0.56766052       0.43916334 </v>
   <v>       0.59626544       0.40843305       0.51204487 </v>
   <v>       0.67369580       0.62627427       0.53170232 </v>
   <v>       0.42904958       0.35191559       0.38847767 </v>
  </varray>
 </structure>
</modeling>
