 vasp.6.3.2 27Jun22 (build Dec 05 2023 10:50:29) complex                        
  
 executed on             LinuxIFC date 2023.12.05  23:12:03
 running on   20 total cores
 distrk:  each k-point on   20 cores,    1 groups
 distr:  one band on NCORE=   5 cores,    4 groups


--------------------------------------------------------------------------------------------------------


 INCAR:
   ENCUT = 600.000000
   SIGMA = 0.050000
   ALGO = Fast
   GGA = PE
   ISMEAR = 0
   ISPIN = 1
   NPAR = 4
   IVDW = 11
   LCHARG = .FALSE.
   LWAVE = .FALSE.

 POTCAR:    PAW_PBE N 08Apr2002                   
 POTCAR:    PAW_PBE C 08Apr2002                   
 POTCAR:    PAW_PBE H 15Jun2001                   
 POTCAR:    PAW_PBE N 08Apr2002                   
   SHA256 =  e053789ff3a61a86a1b75d8a110fcc91f86041011e7b0817c7c99e4e8a6349d7 N/POTCAR              
   COPYR  = (c) Copyright 08Apr2002 Georg Kresse                                                    
   COPYR  = This file is part of the software VASP. Any use, copying, and all other rights are regul
   COPYR  = If you do not have a valid VASP license, you may not use, copy or distribute this file. 
   VRHFIN =N: s2p3                                                                                  
   LEXCH  = PE                                                                                      
   EATOM  =   264.5486 eV,   19.4438 Ry                                                             
                                                                                                    
   TITEL  = PAW_PBE N 08Apr2002                                                                     
   LULTRA =        F    use ultrasoft PP ?                                                          
   IUNSCR =        1    unscreen: 0-lin 1-nonlin 2-no                                               
   RPACOR =    1.200    partial core radius                                                         
   POMASS =   14.001; ZVAL   =    5.000    mass and valenz                                          
   RCORE  =    1.500    outmost cutoff radius                                                       
   RWIGS  =    1.400; RWIGS  =    0.741    wigner-seitz radius (au A)                               
   ENMAX  =  400.000; ENMIN  =  300.000 eV                                                          
   ICORE  =        2    local potential                                                             
   LCOR   =        T    correct aug charges                                                         
   LPAW   =        T    paw PP                                                                      
   EAUG   =  627.112                                                                                
   DEXC   =    0.000                                                                                
   RMAX   =    1.529    core radius for proj-oper                                                   
   RAUG   =    1.300    factor for augmentation sphere                                              
   RDEP   =    1.514    radius for radial grids                                                     
   RDEPT  =    1.338    core radius for aug-charge                                                  
                                                                                                    
   Atomic configuration                                                                             
    4 entries                                                                                       
     n  l   j            E        occ.                                                              
     1  0  0.50      -384.7179   2.0000                                                             
     2  0  0.50       -18.5828   2.0000                                                             
     2  1  0.50        -7.0898   3.0000                                                             
     3  2  1.50        -6.8029   0.0000                                                             
   Description                                                                                      
     l       E           TYP  RCUT    TYP  RCUT                                                     
     0    -18.5828119     23  1.200                                                                 
     0    -13.5018863     23  1.200                                                                 
     1     -7.0897853     23  1.500                                                                 
     1      9.5240782     23  1.500                                                                 
     2     -6.8029130      7  1.500                                                                 
  local pseudopotential read in
  partial core-charges read in
  partial kinetic energy density read in
  atomic valenz-charges read in
  non local Contribution for L=           0  read in
    real space projection operators read in
  non local Contribution for L=           0  read in
    real space projection operators read in
  non local Contribution for L=           1  read in
    real space projection operators read in
  non local Contribution for L=           1  read in
    real space projection operators read in
    PAW grid and wavefunctions read in
 
   number of l-projection  operators is LMAX  =           4
   number of lm-projection operators is LMMAX =           8
 
 POTCAR:    PAW_PBE C 08Apr2002                   
   SHA256 =  253f7b50bb8d59471dbedb8285d89021f4a42ed1a2c5d38a03a736e69125dd95 C/POTCAR              
   COPYR  = (c) Copyright 08Apr2002 Georg Kresse                                                    
   COPYR  = This file is part of the software VASP. Any use, copying, and all other rights are regul
   COPYR  = If you do not have a valid VASP license, you may not use, copy or distribute this file. 
   VRHFIN =C: s2p2                                                                                  
   LEXCH  = PE                                                                                      
   EATOM  =   147.1560 eV,   10.8157 Ry                                                             
                                                                                                    
   TITEL  = PAW_PBE C 08Apr2002                                                                     
   LULTRA =        F    use ultrasoft PP ?                                                          
   IUNSCR =        1    unscreen: 0-lin 1-nonlin 2-no                                               
   RPACOR =    1.200    partial core radius                                                         
   POMASS =   12.011; ZVAL   =    4.000    mass and valenz                                          
   RCORE  =    1.500    outmost cutoff radius                                                       
   RWIGS  =    1.630; RWIGS  =    0.863    wigner-seitz radius (au A)                               
   ENMAX  =  400.000; ENMIN  =  300.000 eV                                                          
   ICORE  =        2    local potential                                                             
   LCOR   =        T    correct aug charges                                                         
   LPAW   =        T    paw PP                                                                      
   EAUG   =  644.873                                                                                
   DEXC   =    0.000                                                                                
   RMAX   =    1.529    core radius for proj-oper                                                   
   RAUG   =    1.300    factor for augmentation sphere                                              
   RDEP   =    1.501    radius for radial grids                                                     
   RDEPT  =    1.300    core radius for aug-charge                                                  
                                                                                                    
   Atomic configuration                                                                             
    4 entries                                                                                       
     n  l   j            E        occ.                                                              
     1  0  0.50      -273.3789   2.0000                                                             
     2  0  0.50       -13.7508   2.0000                                                             
     2  1  0.50        -5.2854   2.0000                                                             
     3  2  1.50        -5.4423   0.0000                                                             
   Description                                                                                      
     l       E           TYP  RCUT    TYP  RCUT                                                     
     0    -13.7508458     23  1.200                                                                 
     0     -8.2022199     23  1.200                                                                 
     1     -5.2854383     23  1.500                                                                 
     1     34.0145650     23  1.500                                                                 
     2     -5.4423304      7  1.500                                                                 
  local pseudopotential read in
  partial core-charges read in
  partial kinetic energy density read in
  atomic valenz-charges read in
  non local Contribution for L=           0  read in
    real space projection operators read in
  non local Contribution for L=           0  read in
    real space projection operators read in
  non local Contribution for L=           1  read in
    real space projection operators read in
  non local Contribution for L=           1  read in
    real space projection operators read in
    PAW grid and wavefunctions read in
 
   number of l-projection  operators is LMAX  =           4
   number of lm-projection operators is LMMAX =           8
 
 POTCAR:    PAW_PBE H 15Jun2001                   
   SHA256 =  030f79b5d3ab3cf0e668861823c8fb652ff669f3e15e46930bd03bfd63a607b6 H/POTCAR              
   COPYR  = (c) Copyright 15Jun2001 Georg Kresse                                                    
   COPYR  = This file is part of the software VASP. Any use, copying, and all other rights are regul
   COPYR  = If you do not have a valid VASP license, you may not use, copy or distribute this file. 
   VRHFIN =H: ultrasoft test                                                                        
   LEXCH  = PE                                                                                      
   EATOM  =    12.4884 eV,    0.9179 Ry                                                             
                                                                                                    
   TITEL  = PAW_PBE H 15Jun2001                                                                     
   LULTRA =        F    use ultrasoft PP ?                                                          
   IUNSCR =        0    unscreen: 0-lin 1-nonlin 2-no                                               
   RPACOR =    0.000    partial core radius                                                         
   POMASS =    1.000; ZVAL   =    1.000    mass and valenz                                          
   RCORE  =    1.100    outmost cutoff radius                                                       
   RWIGS  =    0.700; RWIGS  =    0.370    wigner-seitz radius (au A)                               
   ENMAX  =  250.000; ENMIN  =  200.000 eV                                                          
   RCLOC  =    0.701    cutoff for local pot                                                        
   LCOR   =        T    correct aug charges                                                         
   LPAW   =        T    paw PP                                                                      
   EAUG   =  400.000                                                                                
   RMAX   =    1.123    core radius for proj-oper                                                   
   RAUG   =    1.200    factor for augmentation sphere                                              
   RDEP   =    1.112    radius for radial grids                                                     
   RDEPT  =    0.926    core radius for aug-charge                                                  
                                                                                                    
   Atomic configuration                                                                             
    2 entries                                                                                       
     n  l   j            E        occ.                                                              
     1  0  0.50        -6.4927   1.0000                                                             
     2  1  0.50        -3.4015   0.0000                                                             
   Description                                                                                      
     l       E           TYP  RCUT    TYP  RCUT                                                     
     0     -6.4927494     23  1.100                                                                 
     0      6.8029130     23  1.100                                                                 
     1     -4.0817478     23  1.100                                                                 
  local pseudopotential read in
  atomic valenz-charges read in
  non local Contribution for L=           0  read in
    real space projection operators read in
  non local Contribution for L=           0  read in
    real space projection operators read in
  non local Contribution for L=           1  read in
    real space projection operators read in
    PAW grid and wavefunctions read in
 
   number of l-projection  operators is LMAX  =           3
   number of lm-projection operators is LMMAX =           5
 
  PAW_PBE N 08Apr2002                   :
 energy of atom  1       EATOM= -264.5486
 kinetic energy error for atom=    0.0103 (will be added to EATOM!!)
  PAW_PBE C 08Apr2002                   :
 energy of atom  2       EATOM= -147.1560
 kinetic energy error for atom=    0.0057 (will be added to EATOM!!)
  PAW_PBE H 15Jun2001                   :
 energy of atom  3       EATOM=  -12.4884
 kinetic energy error for atom=    0.0004 (will be added to EATOM!!)
 
 
 POSCAR:  N  C  H
  positions in cartesian coordinates
  No initial velocities read in
 exchange correlation table for  LEXCH =        8
   RHO(1)=    0.500       N(1)  =     2000
   RHO(2)=  100.500       N(2)  =     4000
 


--------------------------------------------------------------------------------------------------------


 ion  position               nearest neighbor table
   1  0.620  0.493  0.500-  13 0.98  12 1.03   3 1.43
   2  0.487  0.470  0.501-   6 1.07   5 1.11   4 1.54   3 1.59
   3  0.552  0.524  0.499-   8 1.18   7 1.21   1 1.43   2 1.59
   4  0.417  0.509  0.502-  11 1.08   9 1.12  10 1.14   2 1.54
   5  0.495  0.431  0.449-   2 1.11
   6  0.492  0.432  0.551-   2 1.07
   7  0.549  0.571  0.552-   3 1.21
   8  0.549  0.566  0.444-   3 1.18
   9  0.411  0.559  0.544-   4 1.12
  10  0.410  0.539  0.442-   4 1.14
  11  0.376  0.468  0.509-   4 1.08
  12  0.635  0.459  0.453-   1 1.03
  13  0.623  0.462  0.549-   1 0.98
 
  LATTYP: Found a simple orthorhombic cell.
 ALAT       =    16.7889000000
 B/A-ratio  =     1.0322177153
 C/A-ratio  =     1.1707616342
  
  Lattice vectors:
  
 A1 = (   0.0000000000,   0.0000000000, -16.7889000000)
 A2 = (   0.0000000000,  17.3298000000,   0.0000000000)
 A3 = (  19.6558000000,   0.0000000000,   0.0000000000)


Analysis of symmetry for initial positions (statically):
=====================================================================
 Subroutine PRICEL returns:
 Original cell was already a primitive cell.
 

 Routine SETGRP: Setting up the symmetry group for a 
 simple orthorhombic supercell.


 Subroutine GETGRP returns: Found  1 space group operations
 (whereof  1 operations were pure point group operations)
 out of a pool of  8 trial point group operations.


The static configuration has the point symmetry C_1 .


Analysis of symmetry for dynamics (positions and initial velocities):
=====================================================================
 Subroutine PRICEL returns:
 Original cell was already a primitive cell.
 

 Routine SETGRP: Setting up the symmetry group for a 
 simple orthorhombic supercell.


 Subroutine GETGRP returns: Found  1 space group operations
 (whereof  1 operations were pure point group operations)
 out of a pool of  8 trial point group operations.


The dynamic configuration has the point symmetry C_1 .


 Subroutine INISYM returns: Found  1 space group operations
 (whereof  1 operations are pure point group operations),
 and found     1 'primitive' translations


----------------------------------------------------------------------------------------

                                     Primitive cell                                     

  volume of cell :    5718.8212

  direct lattice vectors                    reciprocal lattice vectors
    19.655800000  0.000000000  0.000000000     0.050875569  0.000000000  0.000000000
     0.000000000 17.329800000  0.000000000     0.000000000  0.057704070  0.000000000
     0.000000000  0.000000000 16.788900000     0.000000000  0.000000000  0.059563164

  length of vectors
    19.655800000 17.329800000 16.788900000     0.050875569  0.057704070  0.059563164

  position of ions in fractional coordinates (direct lattice)
     0.619621177  0.493082135  0.500338707
     0.487211349  0.469836236  0.500507806
     0.552322143  0.524040910  0.498926493
     0.417071289  0.509264828  0.502470653
     0.494919483  0.430550591  0.448701801
     0.491895083  0.432366630  0.551157709
     0.549215770  0.570595852  0.552356475
     0.548892113  0.565756945  0.443617388
     0.410664691  0.559348917  0.544409693
     0.410409391  0.538501057  0.442439891
     0.376245866  0.467806032  0.509466065
     0.635112484  0.459437822  0.453142887
     0.623361257  0.461600304  0.548798837

  ion indices of the primitive-cell ions
   primitive index   ion index
                 1           1
                 2           2
                 3           3
                 4           4
                 5           5
                 6           6
                 7           7
                 8           8
                 9           9
                10          10
                11          11
                12          12
                13          13

----------------------------------------------------------------------------------------

 
 
 KPOINTS: KPOINTS created by Atomic Simulation Env

Automatic generation of k-mesh.
 Grid dimensions read from file:
 generate k-points for:    1    1    1

 Generating k-lattice:

  Cartesian coordinates                     Fractional coordinates (reciprocal lattice)
     0.050875569  0.000000000  0.000000000     1.000000000  0.000000000  0.000000000
     0.000000000  0.057704070  0.000000000     0.000000000  1.000000000  0.000000000
     0.000000000  0.000000000  0.059563164     0.000000000  0.000000000  1.000000000

  Length of vectors
     0.050875569  0.057704070  0.059563164

  Shift w.r.t. Gamma in fractional coordinates (k-lattice)
     0.000000000  0.000000000  0.000000000

 
 Subroutine IBZKPT returns following result:
 ===========================================
 
 Found      1 irreducible k-points:
 
 Following reciprocal coordinates:
            Coordinates               Weight
  0.000000  0.000000  0.000000      1.000000
 
 Following cartesian coordinates:
            Coordinates               Weight
  0.000000  0.000000  0.000000      1.000000
 


--------------------------------------------------------------------------------------------------------




 Dimension of arrays:
   k-points           NKPTS =      1   k-points in BZ     NKDIM =      1   number of bands    NBANDS=     20
   number of dos      NEDOS =    301   number of ions     NIONS =     13
   non local maximal  LDIM  =      4   non local SUM 2l+1 LMDIM =      8
   total plane-waves  NPLWV = ******
   max r-space proj   IRMAX =      1   max aug-charges    IRDMAX=   3211
   dimension x,y,z NGX =   120 NGY =  108 NGZ =  108
   dimension x,y,z NGXF=   240 NGYF=  216 NGZF=  216
   support grid    NGXF=   240 NGYF=  216 NGZF=  216
   ions per type =               1   3   9
   NGX,Y,Z   is equivalent  to a cutoff of  10.15, 10.36, 10.69 a.u.
   NGXF,Y,Z  is equivalent  to a cutoff of  20.30, 20.72, 21.39 a.u.

 SYSTEM =  unknown system                          
 POSCAR =   N  C  H                                

 Startparameter for this run:
   NWRITE =      2    write-flag & timer
   PREC   = normal    normal or accurate (medium, high low for compatibility)
   ISTART =      0    job   : 0-new  1-cont  2-samecut
   ICHARG =      2    charge: 1-file 2-atom 10-const
   ISPIN  =      1    spin polarized calculation?
   LNONCOLLINEAR =      F non collinear calculations
   LSORBIT =      F    spin-orbit coupling
   INIWAV =      1    electr: 0-lowe 1-rand  2-diag
   LASPH  =      F    aspherical Exc in radial PAW
 Electronic Relaxation 1
   ENCUT  =  600.0 eV  44.10 Ry    6.64 a.u.  39.26 34.61 33.53*2*pi/ulx,y,z
   ENINI  =  600.0     initial cutoff
   ENAUG  =  644.9 eV  augmentation charge cutoff
   NELM   =     60;   NELMIN=  2; NELMDL=  0     # of ELM steps 
   EDIFF  = 0.1E-03   stopping-criterion for ELM
   LREAL  =      F    real-space projection
   NLSPLINE    = F    spline interpolate recip. space projectors
   LCOMPAT=      F    compatible to vasp.4.4
   GGA_COMPAT  = T    GGA compatible to vasp.4.4-vasp.4.6
   LMAXPAW     = -100 max onsite density
   LMAXMIX     =    2 max onsite mixed and CHGCAR
   VOSKOWN=      0    Vosko Wilk Nusair interpolation
   ROPT   =    0.00000   0.00000   0.00000
 Ionic relaxation
   EDIFFG = 0.1E-02   stopping-criterion for IOM
   NSW    =      0    number of steps for IOM
   NBLOCK =      1;   KBLOCK =      1    inner block; outer block 
   IBRION =     -1    ionic relax: 0-MD 1-quasi-New 2-CG
   NFREE  =      0    steps in history (QN), initial steepest desc. (CG)
   ISIF   =      2    stress and relaxation
   IWAVPR =     10    prediction:  0-non 1-charg 2-wave 3-comb
   ISYM   =      2    0-nonsym 1-usesym 2-fastsym
   LCORR  =      T    Harris-Foulkes like correction to forces

   POTIM  = 0.5000    time-step for ionic-motion
   TEIN   =    0.0    initial temperature
   TEBEG  =    0.0;   TEEND  =   0.0 temperature during run
   SMASS  =  -3.00    Nose mass-parameter (am)
   estimated Nose-frequenzy (Omega)   =  0.10E-29 period in steps = 0.13E+47 mass=  -0.883E-26a.u.
   SCALEE = 1.0000    scale energy and forces
   NPACO  =    256;   APACO  = 10.0  distance and # of slots for P.C.
   PSTRESS=    0.0 pullay stress

  Mass of Ions in am
   POMASS =  14.00 12.01  1.00
  Ionic Valenz
   ZVAL   =   5.00  4.00  1.00
  Atomic Wigner-Seitz radii
   RWIGS  =  -1.00 -1.00 -1.00
  virtual crystal weights 
   VCA    =   1.00  1.00  1.00
   NELECT =      26.0000    total number of electrons
   NUPDOWN=      -1.0000    fix difference up-down

 DOS related values:
   EMIN   =  10.00;   EMAX   =-10.00  energy-range for DOS
   EFERMI =   0.00
   ISMEAR =     0;   SIGMA  =   0.05  broadening in eV -4-tet -1-fermi 0-gaus

 Electronic relaxation 2 (details)
   IALGO  =     68    algorithm
   LDIAG  =      T    sub-space diagonalisation (order eigenvalues)
   LSUBROT=      F    optimize rotation matrix (better conditioning)
   TURBO    =      0    0=normal 1=particle mesh
   IRESTART =      0    0=no restart 2=restart with 2 vectors
   NREBOOT  =      0    no. of reboots
   NMIN     =      0    reboot dimension
   EREF     =   0.00    reference energy to select bands
   IMIX   =      4    mixing-type and parameters
     AMIX     =   0.40;   BMIX     =  1.00
     AMIX_MAG =   1.60;   BMIX_MAG =  1.00
     AMIN     =   0.10
     WC   =   100.;   INIMIX=   1;  MIXPRE=   1;  MAXMIX= -45

 Intra band minimization:
   WEIMIN = 0.0000     energy-eigenvalue tresh-hold
   EBREAK =  0.13E-05  absolut break condition
   DEPER  =   0.30     relativ break condition  

   TIME   =   0.40     timestep for ELM

  volume/ion in A,a.u.               =     439.91      2968.65
  Fermi-wavevector in a.u.,A,eV,Ry     =   0.271205  0.512502  1.000735  0.073552
  Thomas-Fermi vector in A             =   1.110459
 
 Write flags
   LWAVE        =      F    write WAVECAR
   LDOWNSAMPLE  =      F    k-point downsampling of WAVECAR
   LCHARG       =      F    write CHGCAR
   LVTOT        =      F    write LOCPOT, total local potential
   LVHAR        =      F    write LOCPOT, Hartree potential only
   LELF         =      F    write electronic localiz. function (ELF)
   LORBIT       =      0    0 simple, 1 ext, 2 COOP (PROOUT), +10 PAW based schemes


 Dipole corrections
   LMONO  =      F    monopole corrections only (constant potential shift)
   LDIPOL =      F    correct potential (dipole corrections)
   IDIPOL =      0    1-x, 2-y, 3-z, 4-all directions 
   EPSILON=  1.0000000 bulk dielectric constant

 Exchange correlation treatment:
   GGA     =    PE    GGA type
   LEXCH   =     8    internal setting for exchange type
   LIBXC   =     F    Libxc                    
   VOSKOWN =     0    Vosko Wilk Nusair interpolation
   LHFCALC =     F    Hartree Fock is set to
   LHFONE  =     F    Hartree Fock one center treatment
   AEXX    =    0.0000 exact exchange contribution

 Linear response parameters
   LEPSILON=     F    determine dielectric tensor
   LRPA    =     F    only Hartree local field effects (RPA)
   LNABLA  =     F    use nabla operator in PAW spheres
   LVEL    =     F    velocity operator in full k-point grid
   CSHIFT  =0.1000    complex shift for real part using Kramers Kronig
   OMEGAMAX=  -1.0    maximum frequency
   DEG_THRESHOLD= 0.2000000E-02 threshold for treating states as degnerate
   RTIME   =   -0.100 relaxation time in fs
  (WPLASMAI=    0.000 imaginary part of plasma frequency in eV, 0.658/RTIME)
   DFIELD  = 0.0000000 0.0000000 0.0000000 field for delta impulse in time
 
  Optional k-point grid parameters
   LKPOINTS_OPT  =     F    use optional k-point grid
   KPOINTS_OPT_MODE=     1    mode for optional k-point grid
 
 Orbital magnetization related:
   ORBITALMAG=     F  switch on orbital magnetization
   LCHIMAG   =     F  perturbation theory with respect to B field
   DQ        =  0.001000  dq finite difference perturbation B field
   LLRAUG    =     F  two centre corrections for induced B field



--------------------------------------------------------------------------------------------------------


 Static calculation
 charge density and potential will be updated during run
 non-spin polarized calculation
 RMM-DIIS sequential band-by-band and
  variant of blocked Davidson during initial phase
 perform sub-space diagonalisation
    before iterative eigenvector-optimisation
 modified Broyden-mixing scheme, WC =      100.0
 initial mixing is a Kerker type mixing with AMIX =  0.4000 and BMIX =      1.0000
 Hartree-type preconditioning will be used
 using additional bands            7
 reciprocal scheme for non local part
 use partial core corrections
 calculate Harris-corrections to forces 
   (improved forces if not selfconsistent)
 use gradient corrections 
 use of overlap-Matrix (Vanderbilt PP)
 Gauss-broadening in eV      SIGMA  =   0.05


--------------------------------------------------------------------------------------------------------


  energy-cutoff  :      600.00
  volume of cell :     5718.82
      direct lattice vectors                 reciprocal lattice vectors
    19.655800000  0.000000000  0.000000000     0.050875569  0.000000000  0.000000000
     0.000000000 17.329800000  0.000000000     0.000000000  0.057704070  0.000000000
     0.000000000  0.000000000 16.788900000     0.000000000  0.000000000  0.059563164

  length of vectors
    19.655800000 17.329800000 16.788900000     0.050875569  0.057704070  0.059563164


 
 k-points in units of 2pi/SCALE and weight: KPOINTS created by Atomic Simulation Env
   0.00000000  0.00000000  0.00000000       1.000
 
 k-points in reciprocal lattice and weights: KPOINTS created by Atomic Simulation Env
   0.00000000  0.00000000  0.00000000       1.000
 
 position of ions in fractional coordinates (direct lattice) 
   0.61962118  0.49308213  0.50033871
   0.48721135  0.46983624  0.50050781
   0.55232214  0.52404091  0.49892649
   0.41707129  0.50926483  0.50247065
   0.49491948  0.43055059  0.44870180
   0.49189508  0.43236663  0.55115771
   0.54921577  0.57059585  0.55235647
   0.54889211  0.56575695  0.44361739
   0.41066469  0.55934892  0.54440969
   0.41040939  0.53850106  0.44243989
   0.37624587  0.46780603  0.50946607
   0.63511248  0.45943782  0.45314289
   0.62336126  0.46160030  0.54879884
 
 position of ions in cartesian coordinates  (Angst):
  12.17914994  8.54501478  8.40013651
   9.57652884  8.14216800  8.40297550
  10.85633357  9.08152416  8.37642699
   8.19786984  8.82545762  8.43592954
   9.72803837  7.46135564  7.53320966
   9.66859138  7.49282722  9.25333166
  10.79527534  9.88831199  9.27345762
  10.78891360  9.80445471  7.44784796
   8.07194304  9.69340486  9.14003989
   8.06692491  9.33211561  7.42807909
   7.39541349  8.10698497  8.55337482
  12.48364396  7.96196557  7.60777062
  12.25266420  7.99944094  9.21372879
 


--------------------------------------------------------------------------------------------------------


 k-point   1 :   0.0000 0.0000 0.0000  plane waves:  190913

 maximum and minimum number of plane-waves per node :     38185    38177

 maximum number of plane-waves:    190913
 maximum index in each direction: 
   IXMAX=   39   IYMAX=   34   IZMAX=   33
   IXMIN=  -39   IYMIN=  -34   IZMIN=  -33


 parallel 3D FFT for wavefunctions:
    minimum data exchange during FFTs selected (reduces bandwidth)
 parallel 3D FFT for charge:
    minimum data exchange during FFTs selected (reduces bandwidth)


 total amount of memory used by VASP MPI-rank0   123171. kBytes
=======================================================================

   base      :      30000. kBytes
   nonl-proj :      15272. kBytes
   fftplans  :      27497. kBytes
   grid      :      47337. kBytes
   one-center:          9. kBytes
   wavefun   :       3056. kBytes
 
     INWAV:  cpu time      0.0001: real time      0.0003
 Broyden mixing: mesh for mixing (old mesh)
   NGX = 79   NGY = 69   NGZ = 67
  (NGX  =240   NGY  =216   NGZ  =216)
  gives a total of 365217 points

 initial charge density was supplied:
 charge density of overlapping atoms calculated
 number of electron      26.0000000 magnetization 
 keeping initial charge density in first step


--------------------------------------------------------------------------------------------------------


 Maximum index for augmentation-charges          244 (set IRDMAX)


--------------------------------------------------------------------------------------------------------


 First call to EWALD:  gamma=   0.099
 Maximum number of real-space cells 3x 3x 3
 Maximum number of reciprocal cells 3x 3x 3

    FEWALD:  cpu time      0.2801: real time      0.2802


--------------------------------------- Iteration      1(   1)  ---------------------------------------


    POTLOK:  cpu time      1.5674: real time      1.5699
    SETDIJ:  cpu time      0.1840: real time      0.1841
     EDDAV:  cpu time     10.3112: real time     10.3430
       DOS:  cpu time      0.9848: real time      0.9850
    --------------------------------------------
      LOOP:  cpu time     13.0474: real time     13.0820

 eigenvalue-minimisations  :    56
 total energy-change (2. order) : 0.1599678E+03  (-0.5734278E+03)
 number of electron      26.0000000 magnetization 
 augmentation part       26.0000000 magnetization 

 Free energy of the ion-electron system (eV)
  ---------------------------------------------------
  alpha Z        PSCENC =         0.47775637
  Ewald energy   TEWEN  =      1311.94847071
  -Hartree energ DENC   =     -1846.01913420
  -exchange      EXHF   =         0.00000000
  -V(xc)+E(xc)   XCENC  =        79.85139783
  PAW double counting   =       549.70511768     -552.68421925
  entropy T*S    EENTRO =        -0.00845366
  eigenvalues    EBANDS =      -201.68418148
  atomic energy  EATOM  =       818.38106669
  Solvation  Ediel_sol  =         0.00000000
  ---------------------------------------------------
  free energy    TOTEN  =       159.96782069 eV

  energy without entropy =      159.97627435  energy(sigma->0) =      159.97204752


--------------------------------------------------------------------------------------------------------




--------------------------------------- Iteration      1(   2)  ---------------------------------------


     EDDAV:  cpu time     11.4775: real time     11.4832
       DOS:  cpu time      0.9595: real time      0.9599
    --------------------------------------------
      LOOP:  cpu time     12.4371: real time     12.4430

 eigenvalue-minimisations  :    72
 total energy-change (2. order) :-0.1366335E+03  (-0.1342917E+03)
 number of electron      26.0000000 magnetization 
 augmentation part       26.0000000 magnetization 

 Free energy of the ion-electron system (eV)
  ---------------------------------------------------
  alpha Z        PSCENC =         0.47775637
  Ewald energy   TEWEN  =      1311.94847071
  -Hartree energ DENC   =     -1846.01913420
  -exchange      EXHF   =         0.00000000
  -V(xc)+E(xc)   XCENC  =        79.85139783
  PAW double counting   =       549.70511768     -552.68421925
  entropy T*S    EENTRO =        -0.00194671
  eigenvalues    EBANDS =      -338.32419810
  atomic energy  EATOM  =       818.38106669
  Solvation  Ediel_sol  =         0.00000000
  ---------------------------------------------------
  free energy    TOTEN  =        23.33431101 eV

  energy without entropy =       23.33625772  energy(sigma->0) =       23.33528437


--------------------------------------------------------------------------------------------------------




--------------------------------------- Iteration      1(   3)  ---------------------------------------


     EDDAV:  cpu time      9.7158: real time      9.7304
       DOS:  cpu time      0.1195: real time      0.1196
    --------------------------------------------
      LOOP:  cpu time      9.8352: real time      9.8500

 eigenvalue-minimisations  :    56
 total energy-change (2. order) :-0.8696618E+02  (-0.8663161E+02)
 number of electron      26.0000000 magnetization 
 augmentation part       26.0000000 magnetization 

 Free energy of the ion-electron system (eV)
  ---------------------------------------------------
  alpha Z        PSCENC =         0.47775637
  Ewald energy   TEWEN  =      1311.94847071
  -Hartree energ DENC   =     -1846.01913420
  -exchange      EXHF   =         0.00000000
  -V(xc)+E(xc)   XCENC  =        79.85139783
  PAW double counting   =       549.70511768     -552.68421925
  entropy T*S    EENTRO =        -0.00000000
  eigenvalues    EBANDS =      -425.29232081
  atomic energy  EATOM  =       818.38106669
  Solvation  Ediel_sol  =         0.00000000
  ---------------------------------------------------
  free energy    TOTEN  =       -63.63186498 eV

  energy without entropy =      -63.63186498  energy(sigma->0) =      -63.63186498


--------------------------------------------------------------------------------------------------------




--------------------------------------- Iteration      1(   4)  ---------------------------------------


     EDDAV:  cpu time      9.0291: real time      9.0341
       DOS:  cpu time      0.3058: real time      0.3060
    --------------------------------------------
      LOOP:  cpu time      9.3349: real time      9.3401

 eigenvalue-minimisations  :    48
 total energy-change (2. order) :-0.1214972E+02  (-0.1214392E+02)
 number of electron      26.0000000 magnetization 
 augmentation part       26.0000000 magnetization 

 Free energy of the ion-electron system (eV)
  ---------------------------------------------------
  alpha Z        PSCENC =         0.47775637
  Ewald energy   TEWEN  =      1311.94847071
  -Hartree energ DENC   =     -1846.01913420
  -exchange      EXHF   =         0.00000000
  -V(xc)+E(xc)   XCENC  =        79.85139783
  PAW double counting   =       549.70511768     -552.68421925
  entropy T*S    EENTRO =        -0.00000000
  eigenvalues    EBANDS =      -437.44204253
  atomic energy  EATOM  =       818.38106669
  Solvation  Ediel_sol  =         0.00000000
  ---------------------------------------------------
  free energy    TOTEN  =       -75.78158671 eV

  energy without entropy =      -75.78158671  energy(sigma->0) =      -75.78158671


--------------------------------------------------------------------------------------------------------




--------------------------------------- Iteration      1(   5)  ---------------------------------------


     EDDAV:  cpu time      8.8434: real time      8.8475
       DOS:  cpu time      0.1223: real time      0.1224
    CHARGE:  cpu time      0.5815: real time      0.5819
    MIXING:  cpu time      0.3670: real time      0.3671
    --------------------------------------------
      LOOP:  cpu time      9.9142: real time      9.9189

 eigenvalue-minimisations  :    48
 total energy-change (2. order) :-0.3340081E+00  (-0.3338473E+00)
 number of electron      26.0000006 magnetization 
 augmentation part        0.8583333 magnetization 

 Broyden mixing:
  rms(total) = 0.13800E+01    rms(broyden)= 0.13798E+01
  rms(prec ) = 0.15354E+01
  weight for this iteration     100.00

 Free energy of the ion-electron system (eV)
  ---------------------------------------------------
  alpha Z        PSCENC =         0.47775637
  Ewald energy   TEWEN  =      1311.94847071
  -Hartree energ DENC   =     -1846.01913420
  -exchange      EXHF   =         0.00000000
  -V(xc)+E(xc)   XCENC  =        79.85139783
  PAW double counting   =       549.70511768     -552.68421925
  entropy T*S    EENTRO =        -0.00000000
  eigenvalues    EBANDS =      -437.77605065
  atomic energy  EATOM  =       818.38106669
  Solvation  Ediel_sol  =         0.00000000
  ---------------------------------------------------
  free energy    TOTEN  =       -76.11559482 eV

  energy without entropy =      -76.11559482  energy(sigma->0) =      -76.11559482


--------------------------------------------------------------------------------------------------------




--------------------------------------- Iteration      1(   6)  ---------------------------------------


    POTLOK:  cpu time      1.6609: real time      1.6704
    SETDIJ:  cpu time      0.2145: real time      0.2146
    EDDIAG:  cpu time      2.4158: real time      2.4166
  RMM-DIIS:  cpu time      3.7689: real time      3.7712
    ORTHCH:  cpu time      0.1407: real time      0.1691
       DOS:  cpu time      0.2104: real time      0.2104
    CHARGE:  cpu time      0.4659: real time      0.4662
    MIXING:  cpu time      0.4623: real time      0.4626
    --------------------------------------------
      LOOP:  cpu time      9.3395: real time      9.3810

 eigenvalue-minimisations  :    54
 total energy-change (2. order) : 0.6454200E+01  (-0.1098094E+01)
 number of electron      26.0000004 magnetization 
 augmentation part        0.7724956 magnetization 

 Broyden mixing:
  rms(total) = 0.69809E+00    rms(broyden)= 0.69809E+00
  rms(prec ) = 0.76531E+00
  weight for this iteration     100.00

 eigenvalues of (default mixing * dielectric matrix)
  average eigenvalue GAMMA=   1.5518
  1.5518

 Free energy of the ion-electron system (eV)
  ---------------------------------------------------
  alpha Z        PSCENC =         0.47775637
  Ewald energy   TEWEN  =      1311.94847071
  -Hartree energ DENC   =     -1906.11031511
  -exchange      EXHF   =         0.00000000
  -V(xc)+E(xc)   XCENC  =        82.88103744
  PAW double counting   =       963.37795301     -966.90778876
  entropy T*S    EENTRO =        -0.00000000
  eigenvalues    EBANDS =      -373.70957503
  atomic energy  EATOM  =       818.38106669
  Solvation  Ediel_sol  =         0.00000000
  ---------------------------------------------------
  free energy    TOTEN  =       -69.66139469 eV

  energy without entropy =      -69.66139469  energy(sigma->0) =      -69.66139469


--------------------------------------------------------------------------------------------------------




--------------------------------------- Iteration      1(   7)  ---------------------------------------


    POTLOK:  cpu time      1.6734: real time      1.6747
    SETDIJ:  cpu time      0.1975: real time      0.1976
    EDDIAG:  cpu time      2.2162: real time      2.2174
  RMM-DIIS:  cpu time      3.9220: real time      3.9245
    ORTHCH:  cpu time      0.2221: real time      0.2223
       DOS:  cpu time      0.1146: real time      0.1146
    CHARGE:  cpu time      0.4678: real time      0.4680
    MIXING:  cpu time      0.5017: real time      0.5019
    --------------------------------------------
      LOOP:  cpu time      9.3153: real time      9.3210

 eigenvalue-minimisations  :    54
 total energy-change (2. order) : 0.1077375E+01  (-0.8767578E+00)
 number of electron      26.0000003 magnetization 
 augmentation part        0.7111816 magnetization 

 Broyden mixing:
  rms(total) = 0.37024E+00    rms(broyden)= 0.37017E+00
  rms(prec ) = 0.39184E+00
  weight for this iteration     100.00

 eigenvalues of (default mixing * dielectric matrix)
  average eigenvalue GAMMA=   1.9698
  1.9698  1.9698

 Free energy of the ion-electron system (eV)
  ---------------------------------------------------
  alpha Z        PSCENC =         0.47775637
  Ewald energy   TEWEN  =      1311.94847071
  -Hartree energ DENC   =     -1952.46060673
  -exchange      EXHF   =         0.00000000
  -V(xc)+E(xc)   XCENC  =        85.47040605
  PAW double counting   =      1468.87527841    -1472.68508085
  entropy T*S    EENTRO =        -0.00000000
  eigenvalues    EBANDS =      -328.59130986
  atomic energy  EATOM  =       818.38106669
  Solvation  Ediel_sol  =         0.00000000
  ---------------------------------------------------
  free energy    TOTEN  =       -68.58401921 eV

  energy without entropy =      -68.58401921  energy(sigma->0) =      -68.58401921


--------------------------------------------------------------------------------------------------------




--------------------------------------- Iteration      1(   8)  ---------------------------------------


    POTLOK:  cpu time      1.6490: real time      1.6502
    SETDIJ:  cpu time      0.2137: real time      0.2138
    EDDIAG:  cpu time      2.3203: real time      2.3213
  RMM-DIIS:  cpu time      3.5466: real time      3.5489
    ORTHCH:  cpu time      0.1211: real time      0.1212
       DOS:  cpu time      0.1615: real time      0.1616
    CHARGE:  cpu time      0.4462: real time      0.4465
    MIXING:  cpu time      0.4781: real time      0.4784
    --------------------------------------------
      LOOP:  cpu time      8.9365: real time      8.9420

 eigenvalue-minimisations  :    54
 total energy-change (2. order) : 0.1882656E+00  (-0.1624238E+00)
 number of electron      26.0000003 magnetization 
 augmentation part        0.7311896 magnetization 

 Broyden mixing:
  rms(total) = 0.13723E+00    rms(broyden)= 0.13723E+00
  rms(prec ) = 0.16207E+00
  weight for this iteration     100.00

 eigenvalues of (default mixing * dielectric matrix)
  average eigenvalue GAMMA=   1.7073
  2.5756  1.2731  1.2731

 Free energy of the ion-electron system (eV)
  ---------------------------------------------------
  alpha Z        PSCENC =         0.47775637
  Ewald energy   TEWEN  =      1311.94847071
  -Hartree energ DENC   =     -1950.68426032
  -exchange      EXHF   =         0.00000000
  -V(xc)+E(xc)   XCENC  =        85.65172742
  PAW double counting   =      1653.24166552    -1656.86107965
  entropy T*S    EENTRO =        -0.00000000
  eigenvalues    EBANDS =      -330.55110033
  atomic energy  EATOM  =       818.38106669
  Solvation  Ediel_sol  =         0.00000000
  ---------------------------------------------------
  free energy    TOTEN  =       -68.39575358 eV

  energy without entropy =      -68.39575358  energy(sigma->0) =      -68.39575358


--------------------------------------------------------------------------------------------------------




--------------------------------------- Iteration      1(   9)  ---------------------------------------


    POTLOK:  cpu time      1.6370: real time      1.6388
    SETDIJ:  cpu time      0.2071: real time      0.2071
    EDDIAG:  cpu time      2.2567: real time      2.2576
  RMM-DIIS:  cpu time      3.7439: real time      3.7469
    ORTHCH:  cpu time      0.1967: real time      0.1968
       DOS:  cpu time      0.2419: real time      0.2420
    CHARGE:  cpu time      0.6479: real time      0.6480
    MIXING:  cpu time      0.5644: real time      0.5647
    --------------------------------------------
      LOOP:  cpu time      9.4956: real time      9.5020

 eigenvalue-minimisations  :    54
 total energy-change (2. order) : 0.1444193E+00  (-0.2959511E-01)
 number of electron      26.0000003 magnetization 
 augmentation part        0.7227308 magnetization 

 Broyden mixing:
  rms(total) = 0.52489E-01    rms(broyden)= 0.52485E-01
  rms(prec ) = 0.65925E-01
  weight for this iteration     100.00

 eigenvalues of (default mixing * dielectric matrix)
  average eigenvalue GAMMA=   1.5710
  2.3311  1.0564  1.4483  1.4483

 Free energy of the ion-electron system (eV)
  ---------------------------------------------------
  alpha Z        PSCENC =         0.47775637
  Ewald energy   TEWEN  =      1311.94847071
  -Hartree energ DENC   =     -1965.26368392
  -exchange      EXHF   =         0.00000000
  -V(xc)+E(xc)   XCENC  =        86.41572911
  PAW double counting   =      1781.15550912    -1784.86326417
  entropy T*S    EENTRO =        -0.00000000
  eigenvalues    EBANDS =      -316.50291816
  atomic energy  EATOM  =       818.38106669
  Solvation  Ediel_sol  =         0.00000000
  ---------------------------------------------------
  free energy    TOTEN  =       -68.25133425 eV

  energy without entropy =      -68.25133425  energy(sigma->0) =      -68.25133425


--------------------------------------------------------------------------------------------------------




--------------------------------------- Iteration      1(  10)  ---------------------------------------


    POTLOK:  cpu time      1.6755: real time      1.6835
    SETDIJ:  cpu time      0.2114: real time      0.2115
    EDDIAG:  cpu time      2.2694: real time      2.2706
  RMM-DIIS:  cpu time      4.0432: real time      4.0457
    ORTHCH:  cpu time      0.1482: real time      0.1483
       DOS:  cpu time      0.1356: real time      0.1356
    CHARGE:  cpu time      0.4901: real time      0.4903
    MIXING:  cpu time      0.5125: real time      0.5126
    --------------------------------------------
      LOOP:  cpu time      9.4858: real time      9.4980

 eigenvalue-minimisations  :    55
 total energy-change (2. order) :-0.1753090E-01  (-0.3444232E-01)
 number of electron      26.0000003 magnetization 
 augmentation part        0.7100472 magnetization 

 Broyden mixing:
  rms(total) = 0.64370E-01    rms(broyden)= 0.64367E-01
  rms(prec ) = 0.72909E-01
  weight for this iteration     100.00

 eigenvalues of (default mixing * dielectric matrix)
  average eigenvalue GAMMA=   1.6441
  2.4675  2.2339  1.0240  1.2476  1.2476

 Free energy of the ion-electron system (eV)
  ---------------------------------------------------
  alpha Z        PSCENC =         0.47775637
  Ewald energy   TEWEN  =      1311.94847071
  -Hartree energ DENC   =     -1970.76494254
  -exchange      EXHF   =         0.00000000
  -V(xc)+E(xc)   XCENC  =        86.54876207
  PAW double counting   =      1758.59117278    -1762.33021494
  entropy T*S    EENTRO =        -0.00000000
  eigenvalues    EBANDS =      -311.12093628
  atomic energy  EATOM  =       818.38106669
  Solvation  Ediel_sol  =         0.00000000
  ---------------------------------------------------
  free energy    TOTEN  =       -68.26886515 eV

  energy without entropy =      -68.26886515  energy(sigma->0) =      -68.26886515


--------------------------------------------------------------------------------------------------------




--------------------------------------- Iteration      1(  11)  ---------------------------------------


    POTLOK:  cpu time      1.6984: real time      1.6999
    SETDIJ:  cpu time      0.2040: real time      0.2041
    EDDIAG:  cpu time      2.5620: real time      2.5631
  RMM-DIIS:  cpu time      3.8695: real time      3.8729
    ORTHCH:  cpu time      0.1404: real time      0.1405
       DOS:  cpu time      0.1446: real time      0.1446
    CHARGE:  cpu time      0.5828: real time      0.5833
    MIXING:  cpu time      0.6158: real time      0.6160
    --------------------------------------------
      LOOP:  cpu time      9.8176: real time      9.8244

 eigenvalue-minimisations  :    54
 total energy-change (2. order) : 0.1047902E-01  (-0.1087205E-01)
 number of electron      26.0000003 magnetization 
 augmentation part        0.7156261 magnetization 

 Broyden mixing:
  rms(total) = 0.26214E-01    rms(broyden)= 0.26211E-01
  rms(prec ) = 0.32867E-01
  weight for this iteration     100.00

 eigenvalues of (default mixing * dielectric matrix)
  average eigenvalue GAMMA=   1.6319
  2.5217  2.5217  1.2200  1.2200  1.4062  0.9017

 Free energy of the ion-electron system (eV)
  ---------------------------------------------------
  alpha Z        PSCENC =         0.47775637
  Ewald energy   TEWEN  =      1311.94847071
  -Hartree energ DENC   =     -1969.56161768
  -exchange      EXHF   =         0.00000000
  -V(xc)+E(xc)   XCENC  =        86.46283861
  PAW double counting   =      1765.27485918    -1768.95387742
  entropy T*S    EENTRO =        -0.00000000
  eigenvalues    EBANDS =      -312.28788259
  atomic energy  EATOM  =       818.38106669
  Solvation  Ediel_sol  =         0.00000000
  ---------------------------------------------------
  free energy    TOTEN  =       -68.25838612 eV

  energy without entropy =      -68.25838612  energy(sigma->0) =      -68.25838612


--------------------------------------------------------------------------------------------------------




--------------------------------------- Iteration      1(  12)  ---------------------------------------


    POTLOK:  cpu time      1.6678: real time      1.6692
    SETDIJ:  cpu time      0.2233: real time      0.2234
    EDDIAG:  cpu time      2.4024: real time      2.4034
  RMM-DIIS:  cpu time      3.7984: real time      3.8018
    ORTHCH:  cpu time      0.3450: real time      0.3452
       DOS:  cpu time      0.0767: real time      0.0767
    CHARGE:  cpu time      0.5029: real time      0.5033
    MIXING:  cpu time      0.5634: real time      0.5637
    --------------------------------------------
      LOOP:  cpu time      9.5799: real time      9.5866

 eigenvalue-minimisations  :    55
 total energy-change (2. order) :-0.1131142E-02  (-0.1663995E-02)
 number of electron      26.0000003 magnetization 
 augmentation part        0.7143271 magnetization 

 Broyden mixing:
  rms(total) = 0.88553E-02    rms(broyden)= 0.88541E-02
  rms(prec ) = 0.14662E-01
  weight for this iteration     100.00

 eigenvalues of (default mixing * dielectric matrix)
  average eigenvalue GAMMA=   1.7734
  3.4588  2.5144  2.0457  1.1626  1.1626  1.0944  0.9751

 Free energy of the ion-electron system (eV)
  ---------------------------------------------------
  alpha Z        PSCENC =         0.47775637
  Ewald energy   TEWEN  =      1311.94847071
  -Hartree energ DENC   =     -1972.77408075
  -exchange      EXHF   =         0.00000000
  -V(xc)+E(xc)   XCENC  =        86.52900717
  PAW double counting   =      1758.53057749    -1762.22357319
  entropy T*S    EENTRO =        -0.00000000
  eigenvalues    EBANDS =      -309.12874175
  atomic energy  EATOM  =       818.38106669
  Solvation  Ediel_sol  =         0.00000000
  ---------------------------------------------------
  free energy    TOTEN  =       -68.25951727 eV

  energy without entropy =      -68.25951727  energy(sigma->0) =      -68.25951727


--------------------------------------------------------------------------------------------------------




--------------------------------------- Iteration      1(  13)  ---------------------------------------


    POTLOK:  cpu time      1.6015: real time      1.6029
    SETDIJ:  cpu time      0.2240: real time      0.2241
    EDDIAG:  cpu time      2.4386: real time      2.4702
  RMM-DIIS:  cpu time      3.7563: real time      3.7597
    ORTHCH:  cpu time      0.1518: real time      0.1520
       DOS:  cpu time      0.2672: real time      0.2672
    CHARGE:  cpu time      0.4514: real time      0.4516
    MIXING:  cpu time      0.7309: real time      0.7313
    --------------------------------------------
      LOOP:  cpu time      9.6218: real time      9.6590

 eigenvalue-minimisations  :    55
 total energy-change (2. order) :-0.5574789E-02  (-0.1814798E-02)
 number of electron      26.0000003 magnetization 
 augmentation part        0.7116986 magnetization 

 Broyden mixing:
  rms(total) = 0.15192E-01    rms(broyden)= 0.15190E-01
  rms(prec ) = 0.17720E-01
  weight for this iteration     100.00

 eigenvalues of (default mixing * dielectric matrix)
  average eigenvalue GAMMA=   1.7867
  3.7319  2.5090  2.5090  1.1226  1.1226  1.4088  0.9941  0.8958

 Free energy of the ion-electron system (eV)
  ---------------------------------------------------
  alpha Z        PSCENC =         0.47775637
  Ewald energy   TEWEN  =      1311.94847071
  -Hartree energ DENC   =     -1976.24471296
  -exchange      EXHF   =         0.00000000
  -V(xc)+E(xc)   XCENC  =        86.60977912
  PAW double counting   =      1759.23679724    -1762.94153702
  entropy T*S    EENTRO =        -0.00000000
  eigenvalues    EBANDS =      -305.73271219
  atomic energy  EATOM  =       818.38106669
  Solvation  Ediel_sol  =         0.00000000
  ---------------------------------------------------
  free energy    TOTEN  =       -68.26509206 eV

  energy without entropy =      -68.26509206  energy(sigma->0) =      -68.26509206


--------------------------------------------------------------------------------------------------------




--------------------------------------- Iteration      1(  14)  ---------------------------------------


    POTLOK:  cpu time      1.6511: real time      1.6526
    SETDIJ:  cpu time      0.1914: real time      0.1914
    EDDIAG:  cpu time      2.0024: real time      2.0035
  RMM-DIIS:  cpu time      3.8730: real time      3.8763
    ORTHCH:  cpu time      0.2916: real time      0.2917
       DOS:  cpu time      0.2639: real time      0.2639
    CHARGE:  cpu time      0.5516: real time      0.5518
    MIXING:  cpu time      0.6895: real time      0.6897
    --------------------------------------------
      LOOP:  cpu time      9.5144: real time      9.5210

 eigenvalue-minimisations  :    54
 total energy-change (2. order) :-0.4362810E-02  (-0.4256323E-03)
 number of electron      26.0000003 magnetization 
 augmentation part        0.7126107 magnetization 

 Broyden mixing:
  rms(total) = 0.43179E-02    rms(broyden)= 0.43175E-02
  rms(prec ) = 0.61035E-02
  weight for this iteration     100.00

 eigenvalues of (default mixing * dielectric matrix)
  average eigenvalue GAMMA=   1.8262
  4.7468  2.5459  1.9604  1.9604  1.1246  1.1246  1.1476  0.9129  0.9129

 Free energy of the ion-electron system (eV)
  ---------------------------------------------------
  alpha Z        PSCENC =         0.47775637
  Ewald energy   TEWEN  =      1311.94847071
  -Hartree energ DENC   =     -1976.01520831
  -exchange      EXHF   =         0.00000000
  -V(xc)+E(xc)   XCENC  =        86.57598581
  PAW double counting   =      1756.39599712    -1760.09424092
  entropy T*S    EENTRO =        -0.00000000
  eigenvalues    EBANDS =      -305.93928232
  atomic energy  EATOM  =       818.38106669
  Solvation  Ediel_sol  =         0.00000000
  ---------------------------------------------------
  free energy    TOTEN  =       -68.26945486 eV

  energy without entropy =      -68.26945486  energy(sigma->0) =      -68.26945486


--------------------------------------------------------------------------------------------------------




--------------------------------------- Iteration      1(  15)  ---------------------------------------


    POTLOK:  cpu time      1.5772: real time      1.5785
    SETDIJ:  cpu time      0.1834: real time      0.1835
    EDDIAG:  cpu time      2.1064: real time      2.1073
  RMM-DIIS:  cpu time      3.8353: real time      3.8386
    ORTHCH:  cpu time      0.1909: real time      0.1912
       DOS:  cpu time      0.1576: real time      0.1578
    CHARGE:  cpu time      0.7344: real time      0.7347
    MIXING:  cpu time      0.7371: real time      0.7374
    --------------------------------------------
      LOOP:  cpu time      9.5223: real time      9.5290

 eigenvalue-minimisations  :    54
 total energy-change (2. order) :-0.2748317E-02  (-0.1973437E-03)
 number of electron      26.0000003 magnetization 
 augmentation part        0.7130504 magnetization 

 Broyden mixing:
  rms(total) = 0.37832E-02    rms(broyden)= 0.37825E-02
  rms(prec ) = 0.50302E-02
  weight for this iteration     100.00

 eigenvalues of (default mixing * dielectric matrix)
  average eigenvalue GAMMA=   1.9706
  5.6734  2.9394  2.2701  2.2701  1.4679  1.1135  1.1135  1.0051  0.9265  0.9265

 Free energy of the ion-electron system (eV)
  ---------------------------------------------------
  alpha Z        PSCENC =         0.47775637
  Ewald energy   TEWEN  =      1311.94847071
  -Hartree energ DENC   =     -1975.95984274
  -exchange      EXHF   =         0.00000000
  -V(xc)+E(xc)   XCENC  =        86.56324257
  PAW double counting   =      1755.37481776    -1759.06959657
  entropy T*S    EENTRO =        -0.00000000
  eigenvalues    EBANDS =      -305.98811797
  atomic energy  EATOM  =       818.38106669
  Solvation  Ediel_sol  =         0.00000000
  ---------------------------------------------------
  free energy    TOTEN  =       -68.27220318 eV

  energy without entropy =      -68.27220318  energy(sigma->0) =      -68.27220318


--------------------------------------------------------------------------------------------------------




--------------------------------------- Iteration      1(  16)  ---------------------------------------


    POTLOK:  cpu time      1.6944: real time      1.6957
    SETDIJ:  cpu time      0.1763: real time      0.1764
    EDDIAG:  cpu time      2.4458: real time      2.4467
  RMM-DIIS:  cpu time      3.7746: real time      3.7771
    ORTHCH:  cpu time      0.1641: real time      0.1642
       DOS:  cpu time      0.1368: real time      0.1369
    CHARGE:  cpu time      0.4358: real time      0.4361
    MIXING:  cpu time      0.7615: real time      0.7618
    --------------------------------------------
      LOOP:  cpu time      9.5893: real time      9.5950

 eigenvalue-minimisations  :    52
 total energy-change (2. order) :-0.4568196E-02  (-0.9196490E-04)
 number of electron      26.0000003 magnetization 
 augmentation part        0.7128126 magnetization 

 Broyden mixing:
  rms(total) = 0.13769E-02    rms(broyden)= 0.13767E-02
  rms(prec ) = 0.20523E-02
  weight for this iteration     100.00

 eigenvalues of (default mixing * dielectric matrix)
  average eigenvalue GAMMA=   1.9779
  6.1184  3.2881  2.5277  1.7804  1.7804  1.1108  1.1108  1.2410  0.9753  0.9122
  0.9122

 Free energy of the ion-electron system (eV)
  ---------------------------------------------------
  alpha Z        PSCENC =         0.47775637
  Ewald energy   TEWEN  =      1311.94847071
  -Hartree energ DENC   =     -1976.39086231
  -exchange      EXHF   =         0.00000000
  -V(xc)+E(xc)   XCENC  =        86.56314500
  PAW double counting   =      1755.25755852    -1758.95340768
  entropy T*S    EENTRO =        -0.00000000
  eigenvalues    EBANDS =      -305.56049868
  atomic energy  EATOM  =       818.38106669
  Solvation  Ediel_sol  =         0.00000000
  ---------------------------------------------------
  free energy    TOTEN  =       -68.27677138 eV

  energy without entropy =      -68.27677138  energy(sigma->0) =      -68.27677138


--------------------------------------------------------------------------------------------------------




--------------------------------------- Iteration      1(  17)  ---------------------------------------


    POTLOK:  cpu time      1.6383: real time      1.6608
    SETDIJ:  cpu time      0.1929: real time      0.1930
    EDDIAG:  cpu time      2.3463: real time      2.3473
  RMM-DIIS:  cpu time      3.3256: real time      3.3290
    ORTHCH:  cpu time      0.2581: real time      0.2582
       DOS:  cpu time      0.2386: real time      0.2387
    CHARGE:  cpu time      0.6223: real time      0.6227
    MIXING:  cpu time      0.7369: real time      0.7373
    --------------------------------------------
      LOOP:  cpu time      9.3591: real time      9.3870

 eigenvalue-minimisations  :    45
 total energy-change (2. order) :-0.9080938E-03  (-0.2539822E-04)
 number of electron      26.0000003 magnetization 
 augmentation part        0.7127675 magnetization 

 Broyden mixing:
  rms(total) = 0.94908E-03    rms(broyden)= 0.94904E-03
  rms(prec ) = 0.14558E-02
  weight for this iteration     100.00

 eigenvalues of (default mixing * dielectric matrix)
  average eigenvalue GAMMA=   2.1339
  6.8108  4.1771  2.3859  2.3297  2.3297  1.5114  1.1121  1.1121  1.0755  0.8973
  0.9328  0.9328

 Free energy of the ion-electron system (eV)
  ---------------------------------------------------
  alpha Z        PSCENC =         0.47775637
  Ewald energy   TEWEN  =      1311.94847071
  -Hartree energ DENC   =     -1976.51410860
  -exchange      EXHF   =         0.00000000
  -V(xc)+E(xc)   XCENC  =        86.56547146
  PAW double counting   =      1756.10562126    -1759.80217878
  entropy T*S    EENTRO =        -0.00000000
  eigenvalues    EBANDS =      -305.43977857
  atomic energy  EATOM  =       818.38106669
  Solvation  Ediel_sol  =         0.00000000
  ---------------------------------------------------
  free energy    TOTEN  =       -68.27767947 eV

  energy without entropy =      -68.27767947  energy(sigma->0) =      -68.27767947


--------------------------------------------------------------------------------------------------------




--------------------------------------- Iteration      1(  18)  ---------------------------------------


    POTLOK:  cpu time      1.5787: real time      1.6007
    SETDIJ:  cpu time      0.1913: real time      0.1913
    EDDIAG:  cpu time      2.3414: real time      2.3422
  RMM-DIIS:  cpu time      3.4377: real time      3.4400
    ORTHCH:  cpu time      0.2426: real time      0.2427
       DOS:  cpu time      0.3091: real time      0.3092
    CHARGE:  cpu time      0.4447: real time      0.4449
    MIXING:  cpu time      0.7518: real time      0.7521
    --------------------------------------------
      LOOP:  cpu time      9.2972: real time      9.3230

 eigenvalue-minimisations  :    45
 total energy-change (2. order) :-0.1567364E-02  (-0.2843333E-04)
 number of electron      26.0000003 magnetization 
 augmentation part        0.7128443 magnetization 

 Broyden mixing:
  rms(total) = 0.13455E-02    rms(broyden)= 0.13455E-02
  rms(prec ) = 0.15297E-02
  weight for this iteration     100.00

 eigenvalues of (default mixing * dielectric matrix)
  average eigenvalue GAMMA=   2.0796
  7.4617  4.2865  2.4049  2.4049  1.7207  1.7207  1.1176  1.1176  1.1358  0.9658
  0.9658  0.8664  0.8664

 Free energy of the ion-electron system (eV)
  ---------------------------------------------------
  alpha Z        PSCENC =         0.47775637
  Ewald energy   TEWEN  =      1311.94847071
  -Hartree energ DENC   =     -1976.43531754
  -exchange      EXHF   =         0.00000000
  -V(xc)+E(xc)   XCENC  =        86.55651883
  PAW double counting   =      1755.57954317    -1759.27537378
  entropy T*S    EENTRO =        -0.00000000
  eigenvalues    EBANDS =      -305.51191128
  atomic energy  EATOM  =       818.38106669
  Solvation  Ediel_sol  =         0.00000000
  ---------------------------------------------------
  free energy    TOTEN  =       -68.27924684 eV

  energy without entropy =      -68.27924684  energy(sigma->0) =      -68.27924684


--------------------------------------------------------------------------------------------------------




--------------------------------------- Iteration      1(  19)  ---------------------------------------


    POTLOK:  cpu time      1.6900: real time      1.6914
    SETDIJ:  cpu time      0.2083: real time      0.2086
    EDDIAG:  cpu time      2.1695: real time      2.1704
  RMM-DIIS:  cpu time      3.1390: real time      3.1718
    ORTHCH:  cpu time      0.1963: real time      0.1965
       DOS:  cpu time      0.1894: real time      0.1894
    --------------------------------------------
      LOOP:  cpu time      7.5926: real time      7.6280

 eigenvalue-minimisations  :    42
 total energy-change (2. order) :-0.8768480E-04  (-0.8708582E-05)
 number of electron      26.0000003 magnetization 
 augmentation part        0.7128443 magnetization 

 Free energy of the ion-electron system (eV)
  ---------------------------------------------------
  alpha Z        PSCENC =         0.47775637
  Ewald energy   TEWEN  =      1311.94847071
  -Hartree energ DENC   =     -1976.49341979
  -exchange      EXHF   =         0.00000000
  -V(xc)+E(xc)   XCENC  =        86.55902578
  PAW double counting   =      1755.82472018    -1759.52057553
  entropy T*S    EENTRO =        -0.00000000
  eigenvalues    EBANDS =      -305.45637892
  atomic energy  EATOM  =       818.38106669
  Solvation  Ediel_sol  =         0.00000000
  ---------------------------------------------------
  free energy    TOTEN  =       -68.27933452 eV

  energy without entropy =      -68.27933452  energy(sigma->0) =      -68.27933452


--------------------------------------------------------------------------------------------------------




 average (electrostatic) potential at core
  the test charge radii are     0.7089  0.6991  0.5201
  (the norm of the test charge is              1.0000)
       1 -72.8513       2 -58.3580       3 -59.1173       4 -58.3069       5 -41.4474
       6 -41.7052       7 -40.7513       8 -40.9046       9 -41.4553      10 -41.2081
      11 -41.8000      12 -43.1467      13 -43.6039
 
 
 
 E-fermi :  -5.0453     XC(G=0):  -0.3713     alpha+bet : -0.1112

 Fermi energy:        -5.0453132812

 k-point     1 :       0.0000    0.0000    0.0000
  band No.  band energies     occupation 
      1     -22.0547      2.00000
      2     -18.6839      2.00000
      3     -15.9718      2.00000
      4     -14.2992      2.00000
      5     -12.1890      2.00000
      6     -10.9593      2.00000
      7     -10.4360      2.00000
      8      -9.7949      2.00000
      9      -9.1688      2.00000
     10      -8.2759      2.00000
     11      -8.2098      2.00000
     12      -7.3439      2.00000
     13      -5.3409      2.00000
     14      -0.5431      0.00000
     15      -0.2260      0.00000
     16       0.0582      0.00000
     17       0.0803      0.00000
     18       0.1022      0.00000
     19       0.4197      0.00000
     20       0.6377      0.00000


--------------------------------------------------------------------------------------------------------


 soft charge-density along one line, spin component           1
         0         1         2         3         4         5         6         7         8         9
 total charge-density along one line
 
 pseudopotential strength for first ion, spin component:           1
 13.842  16.620   0.004  -0.001   0.002   0.015  -0.002   0.010
 16.620  19.956   0.005  -0.002   0.003   0.018  -0.003   0.013
  0.004   0.005  -7.166   0.006   0.039  -9.902   0.010   0.060
 -0.001  -0.002   0.006  -7.209   0.007   0.010  -9.970   0.011
  0.002   0.003   0.039   0.007  -7.175   0.060   0.011  -9.916
  0.015   0.018  -9.902   0.010   0.060 -13.027   0.015   0.093
 -0.002  -0.003   0.010  -9.970   0.011   0.015 -13.132   0.018
  0.010   0.013   0.060   0.011  -9.916   0.093   0.018 -13.048
 total augmentation occupancy for first ion, spin component:           1
  7.529  -3.534  -0.846   0.104  -0.665   0.218  -0.035   0.218
 -3.534   1.797   0.726  -0.058   0.605  -0.128   0.022  -0.152
 -0.846   0.726   2.519  -0.041  -0.134  -0.433   0.017   0.142
  0.104  -0.058  -0.041   2.656  -0.043   0.017  -0.571   0.029
 -0.665   0.605  -0.134  -0.043   2.545   0.142   0.030  -0.494
  0.218  -0.128  -0.433   0.017   0.142   0.087  -0.004  -0.046
 -0.035   0.022   0.017  -0.571   0.030  -0.004   0.126  -0.010
  0.218  -0.152   0.142   0.029  -0.494  -0.046  -0.010   0.109


------------------------ aborting loop because EDIFF is reached ----------------------------------------


    CHARGE:  cpu time      0.5753: real time      0.5758
    FORLOC:  cpu time      0.1741: real time      0.1741
    FORNL :  cpu time      0.5627: real time      0.5630
    STRESS:  cpu time      2.5332: real time      2.5350
    FORCOR:  cpu time      1.5848: real time      1.5860
    FORHAR:  cpu time      0.4927: real time      0.4930
    MIXING:  cpu time      0.7845: real time      0.7850
    OFIELD:  cpu time      0.0001: real time      0.0001

 ---------------------------------------------------------------------------------------------

         DFTD3 V3.0 Rev 1        
 IVDW         = 11
 DF pbe       
 parameters
 VDW_S6       =    1.0000
 VDW_S8       =    0.7220
 VDW_SR       =    1.2170
 rs18     =    1.0000
 alpha6   =   14.0000
 alpha8   =   16.0000
 k1-k3    =   16.0000    1.3333   -4.0000
 VDW_RADIUS   =   50.2022 A
 VDW_CNRADIUS =   21.1671 A
 Edisp (eV)   -0.09658

 E6    (eV) :    -0.0368
 E8    (eV) :    -0.0598
 % E8        : 61.89
    FORVDW:  cpu time      0.0080: real time      0.0080

  FORCE on cell =-STRESS in cart. coord.  units (eV):
  Direction    XX          YY          ZZ          XY          YZ          ZX
  --------------------------------------------------------------------------------------
  Alpha Z     0.47776     0.47776     0.47776
  Ewald     851.91960   272.85075   187.17800   -88.29556    -7.92114   -17.36478
  Hartree   988.95646   532.78229   454.84736   -34.86228    -1.50417    -5.21303
  E(xc)     -93.81944   -94.03121   -94.02295    -0.22837     0.00998    -0.09519
  Local   -2078.94374 -1039.69406  -863.07887   111.18840     6.91193    19.45396
  n-local   -48.92776   -51.67018   -51.62891    -1.72878     0.32202    -0.15304
  augment     1.23119     1.28750     0.89962     0.34381     0.04494     0.06202
  Kinetic   377.04172   375.46130   363.69159    13.04647    -0.24937     5.29435
  Fock        0.00000     0.00000     0.00000     0.00000     0.00000     0.00000
  vdW        -0.03018     0.02623     0.00908    -0.01192     0.00083     0.00089
  -------------------------------------------------------------------------------------
  Total      -2.09438    -2.50964    -1.62734    -0.54823    -2.38498     1.98518
  in kB      -0.58676    -0.70310    -0.45591    -0.15359    -0.66817     0.55616
  external pressure =       -0.58 kB  Pullay stress =        0.00 kB


 VOLUME and BASIS-vectors are now :
 -----------------------------------------------------------------------------
  energy-cutoff  :      600.00
  volume of cell :     5718.82
      direct lattice vectors                 reciprocal lattice vectors
    19.655800000  0.000000000  0.000000000     0.050875569  0.000000000  0.000000000
     0.000000000 17.329800000  0.000000000     0.000000000  0.057704070  0.000000000
     0.000000000  0.000000000 16.788900000     0.000000000  0.000000000  0.059563164

  length of vectors
    19.655800000 17.329800000 16.788900000     0.050875569  0.057704070  0.059563164


 FORCES acting on ions
    electron-ion (+dipol)            ewald-force                    non-local-force                 convergence-correction
 -----------------------------------------------------------------------------------------------
   -.193E+03 0.308E+01 0.566E+01   0.210E+03 0.174E+02 -.642E+01   -.162E+02 -.204E+02 -.238E+00   -.327E-02 -.176E-02 -.103E-02
   0.357E+02 0.755E+02 0.220E+01   -.346E+02 -.744E+02 -.257E+01   0.946E-01 -.595E+00 0.195E-01   -.176E-02 0.183E-02 0.450E-03
   0.681E+01 -.880E+02 0.277E+01   -.118E+02 0.907E+02 -.288E+01   0.333E+01 0.796E+00 -.183E+00   -.602E-02 0.141E-02 0.179E-03
   0.124E+03 -.294E+02 -.894E+01   -.123E+03 0.299E+02 0.885E+01   0.531E+00 0.979E+00 -.149E+01   0.218E-02 -.380E-03 0.104E-02
   0.707E+00 0.518E+02 0.521E+02   -.409E+00 -.548E+02 -.560E+02   -.830E+00 0.325E+01 0.405E+01   0.286E-04 -.778E-03 -.110E-02
   0.278E+01 0.523E+02 -.542E+02   -.213E+01 -.564E+02 0.597E+02   -.478E+00 0.359E+01 -.461E+01   -.324E-04 -.722E-03 0.121E-02
   -.209E+01 -.526E+02 -.472E+02   0.189E+01 0.538E+02 0.487E+02   0.175E+00 -.289E+01 -.302E+01   -.587E-03 0.525E-03 0.791E-03
   -.177E+01 -.500E+02 0.518E+02   0.148E+01 0.516E+02 -.540E+02   0.214E+00 -.286E+01 0.348E+01   -.570E-03 0.617E-03 -.928E-03
   0.261E+02 -.492E+02 -.386E+02   -.264E+02 0.523E+02 0.416E+02   0.659E+00 -.405E+01 -.310E+01   0.341E-03 0.326E-03 0.515E-03
   0.275E+02 -.307E+02 0.537E+02   -.282E+02 0.324E+02 -.574E+02   0.540E+00 -.225E+01 0.438E+01   0.276E-03 0.273E-03 -.618E-03
   0.607E+02 0.366E+02 -.731E+01   -.653E+02 -.406E+02 0.806E+01   0.430E+01 0.380E+01 -.583E+00   -.155E-03 -.602E-03 0.221E-03
   -.444E+02 0.451E+02 0.606E+02   0.462E+02 -.486E+02 -.658E+02   -.233E+01 0.382E+01 0.534E+01   0.602E-03 -.234E-02 -.280E-02
   -.315E+02 0.478E+02 -.699E+02   0.328E+02 -.533E+02 0.782E+02   -.705E+00 0.438E+01 -.683E+01   -.124E-03 -.242E-02 0.305E-02
 -----------------------------------------------------------------------------------------------
   0.107E+02 0.124E+02 0.278E+01   0.711E-13 -.711E-14 0.142E-13   -.107E+02 -.124E+02 -.278E+01   -.908E-02 -.403E-02 0.982E-03
 
 
 POSITION                                       TOTAL-FORCE (eV/Angst)
 -----------------------------------------------------------------------------------
     12.17915      8.54501      8.40014         0.366786      0.066997     -0.994175
      9.57653      8.14217      8.40298         1.196076      0.519477     -0.348713
     10.85633      9.08152      8.37643        -1.716449      3.495011     -0.301365
      8.19787      8.82546      8.43593         0.712012      1.529097     -1.580594
      9.72804      7.46136      7.53321        -0.528250      0.273106      0.107711
      9.66859      7.49283      9.25333         0.174786     -0.531727      0.904362
     10.79528      9.88831      9.27346        -0.027472     -1.701785     -1.515057
     10.78891      9.80445      7.44785        -0.085725     -1.235488      1.281423
      8.07194      9.69340      9.14004         0.346605     -0.903459     -0.032917
      8.06692      9.33212      7.42808        -0.162422     -0.498113      0.710332
      7.39541      8.10698      8.55337        -0.326767     -0.209427      0.159325
     12.48364      7.96197      7.60777        -0.524966      0.304179      0.135627
     12.25266      7.99944      9.21373         0.575787     -1.107866      1.474040
 -----------------------------------------------------------------------------------
    total drift:                                0.000512      0.001727     -0.001585


--------------------------------------------------------------------------------------------------------



  FREE ENERGIE OF THE ION-ELECTRON SYSTEM (eV)
  ---------------------------------------------------
  free  energy   TOTEN  =       -68.37591755 eV

  energy  without entropy=      -68.37591755  energy(sigma->0) =      -68.37591755
 


--------------------------------------------------------------------------------------------------------


    POTLOK:  cpu time      1.8044: real time      1.8060


--------------------------------------------------------------------------------------------------------


     LOOP+:  cpu time    194.0182: real time    194.3303
    4ORBIT:  cpu time      0.0000: real time      0.0000

 total amount of memory used by VASP MPI-rank0   123171. kBytes
=======================================================================

   base      :      30000. kBytes
   nonl-proj :      15272. kBytes
   fftplans  :      27497. kBytes
   grid      :      47337. kBytes
   one-center:          9. kBytes
   wavefun   :       3056. kBytes
 
  
  
 General timing and accounting informations for this job:
 ========================================================
  
                  Total CPU time used (sec):      226.781
                            User time (sec):      225.222
                          System time (sec):        1.559
                         Elapsed time (sec):      227.773
  
                   Maximum memory used (kb):      445120.
                   Average memory used (kb):          N/A
  
                          Minor page faults:       192729
                          Major page faults:            0
                 Voluntary context switches:         3046
