unknown system                          
           1
    19.655800    0.000000    0.000000
     0.000000   17.329800    0.000000
     0.000000    0.000000   16.788900
   N    C    H 
     1     3     9
Direct configuration=     1
   0.61962118  0.49308213  0.50033871
   0.48721135  0.46983624  0.50050781
   0.55232214  0.52404091  0.49892649
   0.41707129  0.50926483  0.50247065
   0.49491948  0.43055059  0.44870180
   0.49189508  0.43236663  0.55115771
   0.54921577  0.57059585  0.55235647
   0.54889211  0.56575695  0.44361739
   0.41066469  0.55934892  0.54440969
   0.41040939  0.53850106  0.44243989
   0.37624587  0.46780603  0.50946607
   0.63511248  0.45943782  0.45314289
   0.62336126  0.46160030  0.54879884
