unknown system                          
           1
    15.402250    0.000000    0.000000
     0.000000   15.402250    0.000000
     0.000000    0.000000   15.402250
   C    H    N 
     7     9     1
Direct configuration=     1
   0.34137391  0.43799587  0.57399929
   0.33545977  0.52960691  0.57401354
   0.40599016  0.58265623  0.56456774
   0.41852488  0.39555203  0.56047272
   0.45166803  0.44142250  0.42633534
   0.45271576  0.53094724  0.42316482
   0.53161274  0.57801587  0.42380247
   0.28072093  0.40168040  0.57182057
   0.47938110  0.42711991  0.57600266
   0.42138000  0.32585419  0.55014047
   0.27128396  0.55861283  0.56978382
   0.47153317  0.56018734  0.57742879
   0.39869552  0.65245406  0.55698208
   0.39428734  0.40573150  0.40725391
   0.51315510  0.40705836  0.42521466
   0.39455890  0.56647060  0.40596603
   0.59687677  0.61698027  0.42546372
Direct configuration=     2
   0.34132978  0.43796433  0.57400510
   0.33553393  0.52971075  0.57409002
   0.40597160  0.58265226  0.56466929
   0.41859357  0.39558855  0.56040026
   0.45163231  0.44141497  0.42637240
   0.45264300  0.53090202  0.42310081
   0.53161025  0.57802846  0.42385798
   0.28068378  0.40158571  0.57178367
   0.47956086  0.42710982  0.57615141
   0.42140028  0.32576412  0.55018837
   0.27114044  0.55864197  0.56978932
   0.47160562  0.56020918  0.57756273
   0.39869276  0.65251409  0.55691459
   0.39423234  0.40573448  0.40707119
   0.51319163  0.40694895  0.42531156
   0.39450855  0.56657894  0.40580949
   0.59697525  0.61699872  0.42550281
Direct configuration=     3
   0.34132201  0.43795548  0.57401163
   0.33548747  0.52977191  0.57420422
   0.40603586  0.58272799  0.56481287
   0.41869552  0.39562829  0.56031031
   0.45158486  0.44133951  0.42641385
   0.45256023  0.53090633  0.42300284
   0.53169198  0.57809359  0.42394056
   0.28064043  0.40145741  0.57172803
   0.47977460  0.42707304  0.57635869
   0.42143385  0.32567912  0.55026159
   0.27100293  0.55866367  0.56980212
   0.47167818  0.56025223  0.57775462
   0.39869433  0.65256715  0.55682142
   0.39417835  0.40575105  0.40680905
   0.51319917  0.40681520  0.42545733
   0.39446122  0.56671440  0.40558549
   0.59699805  0.61695274  0.42556111
Direct configuration=     4
   0.34131987  0.43795546  0.57401495
   0.33546664  0.52980520  0.57427225
   0.40605445  0.58276168  0.56490143
   0.41876684  0.39565247  0.56025773
   0.45155510  0.44130127  0.42643857
   0.45253626  0.53091928  0.42294688
   0.53163632  0.57807041  0.42398727
   0.28063036  0.40138599  0.57169233
   0.47988621  0.42703759  0.57648576
   0.42145609  0.32564562  0.55031005
   0.27092966  0.55867376  0.56981351
   0.47171879  0.56028342  0.57787848
   0.39869868  0.65260021  0.55676481
   0.39415280  0.40576265  0.40664164
   0.51318848  0.40673797  0.42554931
   0.39444349  0.56679088  0.40544283
   0.59708463  0.61696644  0.42560189
Direct configuration=     5
   0.34132796  0.43796016  0.57401626
   0.33545083  0.52982448  0.57432727
   0.40605289  0.58278062  0.56497699
   0.41882965  0.39567590  0.56021555
   0.45152617  0.44127724  0.42646036
   0.45251688  0.53092615  0.42290355
   0.53165291  0.57808785  0.42402617
   0.28064333  0.40133497  0.57166008
   0.47995946  0.42699297  0.57659481
   0.42147718  0.32563950  0.55035546
   0.27088316  0.55867749  0.56982832
   0.47174349  0.56031700  0.57799103
   0.39870633  0.65262505  0.55671785
   0.39414186  0.40577544  0.40649035
   0.51316012  0.40667816  0.42563046
   0.39444468  0.56684502  0.40531543
   0.59708582  0.61693334  0.42563916
Direct configuration=     6
   0.34138987  0.43797406  0.57401539
   0.33539735  0.52983456  0.57445389
   0.40604285  0.58283072  0.56515366
   0.41895009  0.39574645  0.56012145
   0.45144436  0.44124315  0.42651612
   0.45249294  0.53094635  0.42281599
   0.53164441  0.57809506  0.42411378
   0.28073328  0.40123964  0.57157648
   0.48009837  0.42686056  0.57686391
   0.42153639  0.32567355  0.55046987
   0.27081535  0.55867238  0.56987952
   0.47175946  0.56042007  0.57827992
   0.39873332  0.65266190  0.55661180
   0.39414412  0.40581591  0.40610308
   0.51304428  0.40654997  0.42583528
   0.39449650  0.56694327  0.40499194
   0.59708554  0.61684654  0.42574087
Direct configuration=     7
   0.34148510  0.43800094  0.57401863
   0.33534332  0.52986991  0.57467696
   0.40601325  0.58291375  0.56546814
   0.41916697  0.39587654  0.55995152
   0.45128695  0.44119642  0.42661807
   0.45244871  0.53097305  0.42266922
   0.53147738  0.57800700  0.42426875
   0.28091447  0.40107112  0.57142080
   0.48035943  0.42662993  0.57735796
   0.42164262  0.32572800  0.55067240
   0.27068487  0.55865823  0.56998078
   0.47177029  0.56061032  0.57881171
   0.39877749  0.65272225  0.55642602
   0.39415116  0.40589401  0.40539098
   0.51283041  0.40631893  0.42621124
   0.39460321  0.56711068  0.40439509
   0.59723438  0.61677824  0.42593514
Direct configuration=     8
   0.34153018  0.43801786  0.57402193
   0.33532328  0.52988148  0.57476241
   0.40600143  0.58295137  0.56558870
   0.41925203  0.39593120  0.55988573
   0.45121523  0.44117226  0.42666140
   0.45240246  0.53096834  0.42261866
   0.53161464  0.57808412  0.42433533
   0.28100138  0.40100941  0.57135543
   0.48045845  0.42653868  0.57755781
   0.42168543  0.32575542  0.55075004
   0.27064271  0.55864551  0.57002958
   0.47175881  0.56069139  0.57903130
   0.39879287  0.65273951  0.55635761
   0.39416123  0.40593039  0.40509749
   0.51273323  0.40623262  0.42636497
   0.39465786  0.56716515  0.40414763
   0.59711921  0.61664679  0.42601445
Direct configuration=     9
   0.34158621  0.43804188  0.57402998
   0.33529527  0.52990551  0.57488123
   0.40599543  0.58300906  0.56574864
   0.41937457  0.39600375  0.55979473
   0.45111916  0.44113330  0.42672219
   0.45237130  0.53098025  0.42255343
   0.53155240  0.57803821  0.42442461
   0.28110654  0.40091714  0.57126499
   0.48060910  0.42642528  0.57783304
   0.42174236  0.32577685  0.55085113
   0.27057456  0.55862889  0.57009629
   0.47174931  0.56079783  0.57933310
   0.39880842  0.65276796  0.55626451
   0.39416590  0.40597867  0.40469606
   0.51261103  0.40611099  0.42657646
   0.39472061  0.56724772  0.40380448
   0.59718981  0.61660122  0.42612981
Direct configuration=    10
   0.34162206  0.43806120  0.57403840
   0.33528519  0.52991962  0.57494337
   0.40598893  0.58304174  0.56582552
   0.41944646  0.39604457  0.55974708
   0.45106019  0.44111003  0.42676145
   0.45235776  0.53098522  0.42253119
   0.53151832  0.57800184  0.42447520
   0.28117438  0.40087056  0.57121174
   0.48068885  0.42636772  0.57798581
   0.42177305  0.32579112  0.55090051
   0.27054225  0.55861313  0.57014255
   0.47173413  0.56085891  0.57950842
   0.39881120  0.65278374  0.55622068
   0.39417013  0.40600821  0.40446587
   0.51253653  0.40604872  0.42669635
   0.39476283  0.56728316  0.40360308
   0.59723194  0.61657682  0.42620058
Direct configuration=    11
   0.34167569  0.43808655  0.57404934
   0.33526812  0.52993761  0.57503265
   0.40597798  0.58308730  0.56593608
   0.41954851  0.39610302  0.55967829
   0.45097640  0.44107650  0.42681931
   0.45232106  0.53098335  0.42249753
   0.53159830  0.57802608  0.42455107
   0.28127184  0.40080569  0.57113619
   0.48079990  0.42628394  0.57820243
   0.42181707  0.32581526  0.55097170
   0.27049656  0.55859131  0.57020835
   0.47171435  0.56094627  0.57975784
   0.39881526  0.65280851  0.55615834
   0.39417600  0.40604967  0.40413788
   0.51243015  0.40595944  0.42686646
   0.39482472  0.56733211  0.40331684
   0.59718097  0.61647628  0.42629873
Direct configuration=    12
   0.34175309  0.43812310  0.57406711
   0.33524937  0.52995655  0.57514357
   0.40596252  0.58314684  0.56606084
   0.41968263  0.39618025  0.55959223
   0.45086380  0.44103506  0.42690315
   0.45230777  0.53099617  0.42247424
   0.53149712  0.57792372  0.42464834
   0.28140903  0.40072978  0.57103568
   0.48093701  0.42618254  0.57847896
   0.42187398  0.32585293  0.55105403
   0.27044398  0.55855654  0.57030284
   0.47167973  0.56106111  0.58008697
   0.39881313  0.65284289  0.55608768
   0.39418441  0.40610534  0.40371053
   0.51228650  0.40585017  0.42708819
   0.39491499  0.56738315  0.40293640
   0.59728969  0.61644621  0.42643809
Direct configuration=    13
   0.34180116  0.43814516  0.57407893
   0.33524082  0.52996315  0.57520358
   0.40595014  0.58317925  0.56612075
   0.41975972  0.39622497  0.55954316
   0.45079543  0.44100898  0.42695844
   0.45227851  0.53098978  0.42246980
   0.53161031  0.57795837  0.42470765
   0.28149323  0.40069447  0.57097861
   0.48100741  0.42612932  0.57862889
   0.42190517  0.32588077  0.55109525
   0.27041809  0.55853309  0.57036262
   0.47165523  0.56112718  0.58027309
   0.39880639  0.65286547  0.55605700
   0.39419175  0.40613775  0.40347058
   0.51220285  0.40579191  0.42721062
   0.39497485  0.56740018  0.40271846
   0.59720723  0.61634461  0.42651770
Direct configuration=    14
   0.34185893  0.43817138  0.57409287
   0.33522952  0.52997154  0.57527776
   0.40593700  0.58321917  0.56619524
   0.41985319  0.39628009  0.55948215
   0.45071432  0.44097989  0.42702522
   0.45226894  0.53099577  0.42246488
   0.53156327  0.57789387  0.42477670
   0.28159477  0.40064946  0.57090866
   0.48109591  0.42606339  0.57881389
   0.42194436  0.32591372  0.55114639
   0.27038541  0.55850522  0.57043390
   0.47162649  0.56120821  0.58050074
   0.39879941  0.65289203  0.55601703
   0.39419976  0.40617695  0.40317752
   0.51210066  0.40571960  0.42736161
   0.39504595  0.56742513  0.40245191
   0.59726346  0.61631145  0.42661913
Direct configuration=    15
   0.34190418  0.43819147  0.57410517
   0.33522429  0.52997222  0.57532505
   0.40592569  0.58324584  0.56622852
   0.41991901  0.39632062  0.55943759
   0.45065371  0.44095777  0.42708431
   0.45226687  0.53099873  0.42247952
   0.53152423  0.57783399  0.42482713
   0.28167325  0.40062823  0.57085957
   0.48114918  0.42602527  0.57893291
   0.42197108  0.32594463  0.55117247
   0.27036754  0.55847998  0.57049218
   0.47159918  0.56126648  0.58065835
   0.39878577  0.65291360  0.55600285
   0.39420841  0.40620548  0.40297906
   0.51202582  0.40567452  0.42746269
   0.39510691  0.56742757  0.40226191
   0.59731241  0.61629230  0.42669696
Direct configuration=    16
   0.34195268  0.43821429  0.57411859
   0.33521812  0.52997479  0.57537874
   0.40591297  0.58327593  0.56626885
   0.41999260  0.39636600  0.55938568
   0.45058664  0.44093020  0.42714988
   0.45224746  0.53099310  0.42249174
   0.53159681  0.57783693  0.42488551
   0.28175784  0.40060326  0.57080547
   0.48121052  0.42598278  0.57906543
   0.42200048  0.32597722  0.55120319
   0.27034606  0.55845254  0.57055675
   0.47157010  0.56133143  0.58083198
   0.39877078  0.65293746  0.55598727
   0.39421783  0.40623652  0.40275826
   0.51194418  0.40562278  0.42757359
   0.39517328  0.56743139  0.40205128
   0.59726858  0.61621411  0.42678007
Direct configuration=    17
   0.34201212  0.43824300  0.57413619
   0.33521280  0.52997435  0.57543792
   0.40589793  0.58331030  0.56629941
   0.42007860  0.39642216  0.55931987
   0.45050721  0.44089642  0.42723872
   0.45224571  0.53099402  0.42252262
   0.53156353  0.57776272  0.42495324
   0.28185976  0.40058174  0.57074289
   0.48127757  0.42594138  0.57921030
   0.42203475  0.32602043  0.55123092
   0.27032382  0.55841597  0.57063918
   0.47153161  0.56140902  0.58103080
   0.39874533  0.65296766  0.55598181
   0.39423050  0.40627245  0.40250836
   0.51184830  0.40556545  0.42769764
   0.39525894  0.56742542  0.40180255
   0.59731913  0.61618070  0.42688583
Direct configuration=    18
   0.34205688  0.43826753  0.57415055
   0.33520891  0.52997356  0.57548264
   0.40588609  0.58333682  0.56631432
   0.42014610  0.39646835  0.55926060
   0.45044474  0.44086490  0.42731771
   0.45223385  0.53098628  0.42255457
   0.53161979  0.57774833  0.42500883
   0.28193685  0.40056919  0.57069608
   0.48132812  0.42591552  0.57931442
   0.42206037  0.32605561  0.55124847
   0.27030619  0.55838499  0.57070873
   0.47150020  0.56147054  0.58117896
   0.39871911  0.65299291  0.55598833
   0.39424193  0.40629913  0.40232147
   0.51177593  0.40552085  0.42778635
   0.39532978  0.56741344  0.40160882
   0.59729446  0.61611717  0.42696858
Direct configuration=    19
   0.34210262  0.43829308  0.57416520
   0.33520459  0.52997256  0.57552862
   0.40587431  0.58336415  0.56632762
   0.42021555  0.39651699  0.55919694
   0.45038138  0.44083189  0.42740123
   0.45223172  0.53098325  0.42258966
   0.53161329  0.57769530  0.42506430
   0.28201503  0.40055683  0.57064862
   0.48138040  0.42589017  0.57941973
   0.42208672  0.32609207  0.55126598
   0.27028754  0.55835300  0.57078154
   0.47146832  0.56153419  0.58132964
   0.39869093  0.65301936  0.55599722
   0.39425366  0.40632578  0.40213091
   0.51170263  0.40547437  0.42787557
   0.39540305  0.56740078  0.40140923
   0.59732298  0.61608331  0.42705589
Direct configuration=    20
   0.34215455  0.43832527  0.57418235
   0.33519879  0.52997076  0.57558220
   0.40586088  0.58339628  0.56633416
   0.42029812  0.39657838  0.55911013
   0.45030691  0.44078717  0.42751155
   0.45223441  0.53097971  0.42264006
   0.53158478  0.57761644  0.42512928
   0.28210352  0.40054601  0.57059555
   0.48144138  0.42586651  0.57953502
   0.42211691  0.32613684  0.55128345
   0.27026397  0.55831338  0.57087423
   0.47143050  0.56161106  0.58149979
   0.39865084  0.65305278  0.55601945
   0.39426927  0.40635505  0.40191391
   0.51161976  0.40541788  0.42797124
   0.39549364  0.56737958  0.40117253
   0.59737818  0.61605633  0.42716164
Direct configuration=    21
   0.34220198  0.43835601  0.57419794
   0.33519262  0.52996961  0.57563326
   0.40584766  0.58342667  0.56634187
   0.42037625  0.39663664  0.55902583
   0.45023670  0.44074232  0.42761592
   0.45222303  0.53096933  0.42268500
   0.53165218  0.57759772  0.42519231
   0.28218512  0.40053567  0.57054667
   0.48149862  0.42584391  0.57964258
   0.42214450  0.32617887  0.55130133
   0.27024077  0.55827672  0.57096260
   0.47139564  0.56168357  0.58165806
   0.39861273  0.65308459  0.55604166
   0.39428465  0.40638198  0.40170961
   0.51154307  0.40536369  0.42805818
   0.39557873  0.56735899  0.40095014
   0.59735109  0.61598531  0.42725785
Direct configuration=    22
   0.34225561  0.43839567  0.57421588
   0.33518315  0.52996731  0.57569468
   0.40583238  0.58346311  0.56634087
   0.42047076  0.39671293  0.55890721
   0.45015386  0.44068080  0.42775538
   0.45222283  0.53096097  0.42274853
   0.53165534  0.57752539  0.42526507
   0.28227725  0.40052760  0.57049299
   0.48156620  0.42582308  0.57976035
   0.42217594  0.32623226  0.55132116
   0.27020998  0.55823175  0.57107877
   0.47135446  0.56177346  0.58183737
   0.39855885  0.65312587  0.55608358
   0.39430645  0.40641087  0.40147264
   0.51145689  0.40529524  0.42814696
   0.39568603  0.56732727  0.40068075
   0.59738666  0.61594053  0.42737722
Direct configuration=    23
   0.34229958  0.43843444  0.57422985
   0.33517145  0.52996459  0.57575166
   0.40581800  0.58349626  0.56633293
   0.42055699  0.39678873  0.55877848
   0.45007959  0.44061538  0.42789708
   0.45222092  0.53094793  0.42281294
   0.53169082  0.57747586  0.42532873
   0.28235407  0.40052405  0.57045097
   0.48162575  0.42580867  0.57985650
   0.42220167  0.32628414  0.55134005
   0.27017788  0.55819093  0.57119667
   0.47131810  0.56185817  0.58198893
   0.39850188  0.65316645  0.55613759
   0.39433085  0.40643299  0.40126372
   0.51138491  0.40522853  0.42820861
   0.39578844  0.56729068  0.40043317
   0.59739457  0.61588853  0.42748326
Direct configuration=    24
   0.34229520  0.43843703  0.57422794
   0.33516864  0.52996387  0.57575237
   0.40581743  0.58349612  0.56632555
   0.42055667  0.39679473  0.55875967
   0.45008164  0.44060707  0.42790986
   0.45222555  0.53094650  0.42281913
   0.53167605  0.57746447  0.42532463
   0.28234744  0.40052790  0.57045768
   0.48162341  0.42581304  0.57984556
   0.42219871  0.32628721  0.55134079
   0.27017442  0.55819132  0.57120810
   0.47131904  0.56186065  0.58197733
   0.39849464  0.65316922  0.55615262
   0.39433503  0.40642885  0.40127039
   0.51139125  0.40522487  0.42818979
   0.39579277  0.56728355  0.40043148
   0.59740918  0.61589985  0.42748212
Direct configuration=    25
   0.34230000  0.43844666  0.57422915
   0.33516416  0.52996286  0.57576385
   0.40581393  0.58350242  0.56631902
   0.42057272  0.39681320  0.55872101
   0.45006934  0.44058811  0.42794544
   0.45222557  0.53094133  0.42283447
   0.53169235  0.57745875  0.42533273
   0.28235689  0.40053024  0.57045509
   0.48163275  0.42581329  0.57985559
   0.42220077  0.32629911  0.55134560
   0.27016576  0.55818425  0.57123962
   0.47131280  0.56187839  0.58199686
   0.39847861  0.65317916  0.55617445
   0.39434278  0.40642951  0.40123483
   0.51138266  0.40520948  0.42818615
   0.39581511  0.56727129  0.40038327
   0.59740345  0.61588851  0.42750117
Direct configuration=    26
   0.34230255  0.43845807  0.57422910
   0.33515788  0.52996112  0.57577666
   0.40581009  0.58350913  0.56631008
   0.42058882  0.39683488  0.55867222
   0.45005814  0.44056388  0.42798787
   0.45223037  0.53093682  0.42285243
   0.53169322  0.57744232  0.42533898
   0.28236428  0.40053446  0.57045536
   0.48164134  0.42581493  0.57986197
   0.42220142  0.32631274  0.55135140
   0.27015528  0.55817727  0.57127832
   0.47130656  0.56189815  0.58201304
   0.39845899  0.65319083  0.55620371
   0.39435286  0.40642822  0.40119895
   0.51137609  0.40519187  0.42817402
   0.39583960  0.56725612  0.40033104
   0.59741127  0.61588598  0.42751973
Direct configuration=    27
   0.34234937  0.43863028  0.57422567
   0.33506196  0.52993850  0.57597665
   0.40574700  0.58361261  0.56618377
   0.42083307  0.39716562  0.55793619
   0.44988108  0.44021011  0.42862326
   0.45228371  0.53085385  0.42311666
   0.53180794  0.57725319  0.42543517
   0.28248106  0.40059473  0.57045681
   0.48176953  0.42583068  0.57996993
   0.42220830  0.32651836  0.55144571
   0.26999491  0.55807130  0.57187118
   0.47120864  0.56219865  0.58227218
   0.39816352  0.65336689  0.55664323
   0.39450539  0.40640804  0.40063001
   0.51127280  0.40492014  0.42799409
   0.39621517  0.56702499  0.39952719
   0.59745161  0.61580273  0.42779521
Direct configuration=    28
   0.34234060  0.43861512  0.57422195
   0.33506855  0.52994637  0.57595975
   0.40574512  0.58360284  0.56619248
   0.42080336  0.39714214  0.55798178
   0.44990054  0.44023278  0.42856567
   0.45227950  0.53085265  0.42308781
   0.53179313  0.57726719  0.42540845
   0.28246093  0.40059370  0.57047155
   0.48174697  0.42582806  0.57994783
   0.42219610  0.32650386  0.55144593
   0.27000516  0.55808675  0.57184058
   0.47121612  0.56217147  0.58223153
   0.39818407  0.65335345  0.55662430
   0.39450286  0.40640329  0.40067939
   0.51129391  0.40494118  0.42797200
   0.39618534  0.56703435  0.39959913
   0.59745069  0.61582462  0.42775390
Direct configuration=    29
   0.34234180  0.43863266  0.57421985
   0.33505739  0.52994598  0.57597949
   0.40573636  0.58361327  0.56617920
   0.42082210  0.39717609  0.55790109
   0.44988698  0.44019440  0.42862499
   0.45228555  0.53083963  0.42310932
   0.53180661  0.57725078  0.42540714
   0.28246673  0.40060190  0.57048008
   0.48175327  0.42582914  0.57995114
   0.42219004  0.32652525  0.55145967
   0.26998769  0.55808021  0.57190954
   0.47120569  0.56219965  0.58224594
   0.39815274  0.65337153  0.55667742
   0.39452269  0.40639718  0.40062401
   0.51129043  0.40491383  0.42793350
   0.39622215  0.56700641  0.39952288
   0.59745054  0.61582200  0.42776993
Direct configuration=    30
   0.34233419  0.43864772  0.57421444
   0.33504510  0.52994536  0.57599439
   0.40572916  0.58362107  0.56617049
   0.42082826  0.39719988  0.55783175
   0.44988475  0.44016017  0.42866116
   0.45229340  0.53082843  0.42311656
   0.53181538  0.57724068  0.42539044
   0.28246141  0.40061161  0.57049878
   0.48174804  0.42582929  0.57994192
   0.42217545  0.32654081  0.55147583
   0.26997284  0.55808139  0.57197402
   0.47119781  0.56221710  0.58223956
   0.39812753  0.65338588  0.55672988
   0.39454354  0.40638605  0.40058622
   0.51129794  0.40489415  0.42787463
   0.39624685  0.56697990  0.39947342
   0.59744665  0.61583000  0.42776337
Direct configuration=    31
   0.34231849  0.43868190  0.57420001
   0.33501696  0.52994861  0.57603067
   0.40570639  0.58363984  0.56614949
   0.42083745  0.39726070  0.55766267
   0.44988122  0.44007948  0.42874384
   0.45231554  0.53079505  0.42313043
   0.53182909  0.57721214  0.42534301
   0.28244533  0.40063600  0.57054805
   0.48173316  0.42582979  0.57991629
   0.42213571  0.32657673  0.55151699
   0.26993548  0.55808627  0.57213560
   0.47117912  0.56225774  0.58221885
   0.39806518  0.65342146  0.55686188
   0.39459480  0.40635614  0.40049279
   0.51131997  0.40484581  0.42772129
   0.39630469  0.56691360  0.39935479
   0.59744213  0.61585706  0.42774250
Direct configuration=    32
   0.34225851  0.43880501  0.57414929
   0.33491516  0.52996303  0.57616083
   0.40562254  0.58370752  0.56607446
   0.42086800  0.39747686  0.55705812
   0.44987183  0.43978961  0.42903550
   0.45239328  0.53067090  0.42317593
   0.53189933  0.57712147  0.42516994
   0.28238754  0.40072420  0.57072703
   0.48167972  0.42583255  0.57982314
   0.42198998  0.32670498  0.55166517
   0.26980151  0.55810478  0.57271961
   0.47111167  0.56240248  0.58214230
   0.39784020  0.65355130  0.55733855
   0.39477912  0.40624742  0.40015394
   0.51140038  0.40467229  0.42716716
   0.39651161  0.56667365  0.39892828
   0.59740715  0.61594587  0.42766122
Direct configuration=    33
   0.34223946  0.43882286  0.57414181
   0.33489769  0.52996740  0.57617768
   0.40560979  0.58371899  0.56607039
   0.42086168  0.39749390  0.55698914
   0.44988316  0.43974728  0.42904658
   0.45240751  0.53065411  0.42316081
   0.53190898  0.57711375  0.42512939
   0.28237196  0.40073859  0.57076132
   0.48166431  0.42583332  0.57980090
   0.42195784  0.32671739  0.55168841
   0.26978506  0.55811334  0.57280533
   0.47110278  0.56241364  0.58211638
   0.39781050  0.65357092  0.55741024
   0.39480593  0.40622751  0.40010933
   0.51141948  0.40465355  0.42707194
   0.39653077  0.56663820  0.39888295
   0.59739518  0.61596801  0.42762431
Direct configuration=    34
   0.34223414  0.43882625  0.57413982
   0.33489389  0.52996961  0.57618133
   0.40560612  0.58372159  0.56607139
   0.42085702  0.39749612  0.55697713
   0.44988781  0.43973919  0.42904216
   0.45241210  0.53064909  0.42315235
   0.53190937  0.57711243  0.42511605
   0.28236607  0.40074213  0.57077120
   0.48165914  0.42583347  0.57979383
   0.42194784  0.32671802  0.55169421
   0.26978128  0.55811689  0.57282586
   0.47110082  0.56241418  0.58210708
   0.39780413  0.65357573  0.55742787
   0.39481205  0.40622168  0.40009950
   0.51142645  0.40464993  0.42704631
   0.39653270  0.56663000  0.39887568
   0.59739222  0.61597607  0.42760973
Direct configuration=    35
   0.34222039  0.43883851  0.57413345
   0.33488165  0.52997536  0.57619444
   0.40559438  0.58373010  0.56607088
   0.42084669  0.39750947  0.55692784
   0.44989829  0.43971100  0.42904172
   0.45242457  0.53063183  0.42313393
   0.53191449  0.57710667  0.42507884
   0.28235029  0.40075364  0.57080062
   0.48164497  0.42583384  0.57977355
   0.42191899  0.32672424  0.55171311
   0.26976767  0.55812592  0.57289497
   0.47109384  0.56242063  0.58208232
   0.39778116  0.65359155  0.55748633
   0.39483310  0.40620414  0.40006401
   0.51144564  0.40463510  0.42696631
   0.39654484  0.56660202  0.39884309
   0.59738267  0.61599727  0.42757387
Direct configuration=    36
   0.34211845  0.43892955  0.57407990
   0.33478640  0.53001589  0.57630294
   0.40550840  0.58379995  0.56607827
   0.42077021  0.39760926  0.55654599
   0.44997866  0.43949383  0.42902107
   0.45251832  0.53050400  0.42297711
   0.53195597  0.57706493  0.42478763
   0.28222518  0.40084477  0.57103009
   0.48153286  0.42583555  0.57961323
   0.42169359  0.32677268  0.55185813
   0.26965920  0.55819636  0.57343741
   0.47103892  0.56247101  0.58188964
   0.39760116  0.65371420  0.55794582
   0.39499677  0.40606535  0.39978351
   0.51159284  0.40451786  0.42634301
   0.39663725  0.56638595  0.39858546
   0.59730105  0.61616162  0.42729701
Direct configuration=    37
   0.34205029  0.43898818  0.57404292
   0.33472407  0.53004763  0.57637583
   0.40544484  0.58384829  0.56608694
   0.42071167  0.39767485  0.55629475
   0.45003688  0.43935087  0.42899634
   0.45258293  0.53041107  0.42286376
   0.53198085  0.57703618  0.42458544
   0.28213921  0.40090744  0.57118733
   0.48145493  0.42583642  0.57950142
   0.42153778  0.32680425  0.55195626
   0.26958614  0.55824557  0.57380749
   0.47100222  0.56250345  0.58175532
   0.39747932  0.65379749  0.55825999
   0.39510773  0.40596992  0.39959177
   0.51169379  0.40443875  0.42591845
   0.39669726  0.56623940  0.39841199
   0.59724746  0.61627706  0.42710196
Direct configuration=    38
   0.34209588  0.43894474  0.57406529
   0.33476809  0.53003471  0.57632788
   0.40547685  0.58382050  0.56609130
   0.42073730  0.39762596  0.55647548
   0.45000680  0.43945088  0.42898715
   0.45254291  0.53045970  0.42292034
   0.53196204  0.57705634  0.42470705
   0.28219325  0.40086881  0.57108827
   0.48150130  0.42583512  0.57956738
   0.42163290  0.32678186  0.55189148
   0.26963496  0.55821626  0.57357246
   0.47102617  0.56247942  0.58183502
   0.39755859  0.65374348  0.55806211
   0.39503582  0.40602948  0.39971229
   0.51162907  0.40449103  0.42619202
   0.39665317  0.56633425  0.39852617
   0.59728154  0.61620781  0.42721264
Direct configuration=    39
   0.34204167  0.43899013  0.57403537
   0.33471979  0.53006288  0.57638581
   0.40542316  0.58386131  0.56610505
   0.42068517  0.39767405  0.55628685
   0.45005652  0.43933943  0.42895300
   0.45259577  0.53038103  0.42282004
   0.53198122  0.57703458  0.42454157
   0.28212440  0.40091958  0.57121432
   0.48143703  0.42583535  0.57947479
   0.42150621  0.32680592  0.55196796
   0.26957780  0.55825674  0.57386931
   0.47099609  0.56250407  0.58172421
   0.39746186  0.65381019  0.55831470
   0.39512390  0.40595280  0.39955794
   0.51170958  0.40442824  0.42585602
   0.39669853  0.56621726  0.39838931
   0.59723717  0.61630186  0.42704734
Direct configuration=    40
   0.34197405  0.43904369  0.57399537
   0.33465837  0.53010212  0.57646032
   0.40535044  0.58391960  0.56613888
   0.42060760  0.39772463  0.55607130
   0.45012710  0.43920667  0.42887117
   0.45266372  0.53027445  0.42266636
   0.53200729  0.57701115  0.42432070
   0.28203522  0.40098655  0.57137730
   0.48135090  0.42583570  0.57934881
   0.42133860  0.32683269  0.55206117
   0.26950692  0.55831099  0.57425291
   0.47095557  0.56253293  0.58157424
   0.39733791  0.65389708  0.55864277
   0.39523645  0.40585252  0.39935636
   0.51181132  0.40434874  0.42543002
   0.39675140  0.56606711  0.39821638
   0.59717354  0.61642218  0.42682259
Direct configuration=    41
   0.34201065  0.43901300  0.57401616
   0.33469275  0.53008419  0.57642027
   0.40538602  0.58389126  0.56613055
   0.42064228  0.39769131  0.55620337
   0.45009362  0.43928280  0.42889325
   0.45262906  0.53032730  0.42273387
   0.53199044  0.57702394  0.42443353
   0.28208241  0.40095161  0.57129076
   0.48139436  0.42583524  0.57941146
   0.42142511  0.32681606  0.55200833
   0.26954637  0.55828352  0.57404948
   0.47097603  0.56251580  0.58164939
   0.39740457  0.65385152  0.55846967
   0.39517542  0.40590512  0.39946226
   0.51175681  0.40439159  0.42566178
   0.39671963  0.56614736  0.39831095
   0.59720669  0.61636050  0.42693212
Direct configuration=    42
   0.34197621  0.43903946  0.57399576
   0.33466345  0.53010659  0.57645781
   0.40534683  0.58392185  0.56615394
   0.42059953  0.39771315  0.55610520
   0.45013187  0.43921823  0.42883933
   0.45266558  0.53027135  0.42264713
   0.53199953  0.57701047  0.42431919
   0.28203714  0.40098569  0.57137314
   0.48134921  0.42583519  0.57934472
   0.42133872  0.32682833  0.55205326
   0.26951155  0.55831174  0.57424440
   0.47095473  0.56252958  0.58157054
   0.39734210  0.65389622  0.55863696
   0.39523104  0.40585378  0.39935914
   0.51180840  0.40435122  0.42545015
   0.39674413  0.56607144  0.39822465
   0.59717572  0.61642436  0.42681088
Direct configuration=    43
   0.34190242  0.43909447  0.57395099
   0.33459920  0.53015551  0.57654050
   0.40526035  0.58399258  0.56621499
   0.42050207  0.39775377  0.55590736
   0.45021772  0.43908631  0.42869937
   0.45274356  0.53014778  0.42244293
   0.53202786  0.57698795  0.42406790
   0.28193872  0.40106026  0.57155131
   0.48125092  0.42583595  0.57919603
   0.42114929  0.32685112  0.55214661
   0.26943733  0.55837366  0.57466823
   0.47090789  0.56255841  0.58139559
   0.39720588  0.65399481  0.55900170
   0.39535041  0.40574125  0.39913299
   0.51191912  0.40426332  0.42499639
   0.39679433  0.56590704  0.39803767
   0.59709867  0.61655671  0.42654441
Direct configuration=    44
   0.34192130  0.43907848  0.57396134
   0.33461736  0.53014818  0.57652069
   0.40527704  0.58397886  0.56621367
   0.42051765  0.39773634  0.55597790
   0.45020180  0.43912506  0.42870555
   0.45272790  0.53017382  0.42247320
   0.53201388  0.57699089  0.42412391
   0.28196249  0.40104258  0.57150755
   0.48127271  0.42583601  0.57922616
   0.42119249  0.32684210  0.55211829
   0.26945741  0.55836012  0.57456699
   0.47091781  0.56254987  0.58143218
   0.39723908  0.65397265  0.55891561
   0.39531880  0.40576734  0.39918546
   0.51189182  0.40428415  0.42511556
   0.39677761  0.56594722  0.39808495
   0.59711896  0.61652886  0.42659641
Direct configuration=    45
   0.34190055  0.43909316  0.57394821
   0.33460031  0.53016505  0.57654475