 vasp.6.3.2 27Jun22 (build Oct 05 2023 17:59:42) gamma-only                     
  
 POSCAR found type information on POSCAR C H N 
 06/POSCAR found :  3 types and      18 ions
 scaLAPACK will be used
 -----------------------------------------------------------------------------
|                                                                             |
|               ----> ADVICE to this user running VASP <----                  |
|                                                                             |
|     You have a (more or less) 'large supercell' and for larger cells it     |
|     might be more efficient to use real-space projection operators.         |
|     Therefore, try LREAL= Auto in the INCAR file.                           |
|     Mind: For very accurate calculation, you might also keep the            |
|     reciprocal projection scheme (i.e. LREAL=.FALSE.).                      |
|                                                                             |
 -----------------------------------------------------------------------------

 LDA part: xc-table for Pade appr. of Perdew
 POSCAR found type information on POSCAR C H N 
 00/POSCAR found :  3 types and      18 ions
 POSCAR found type information on POSCAR C H N 
 10/POSCAR found :  3 types and      18 ions
 Jacobian:    24.2830561029085     
 POSCAR found type information on POSCAR C H N 
 00/POSCAR found :  3 types and      18 ions
 POSCAR found type information on POSCAR C H N 
 10/POSCAR found :  3 types and      18 ions
 POSCAR, INCAR and KPOINTS ok, starting setup
 FFT: planning ... GRIDC
 FFT: planning ... GRID_SOFT
 FFT: planning ... GRID
 WAVECAR not read
 entering main loop
       N       E                     dE             d eps       ncg     rms          rms(c)
DAV:   1     0.451983318242E+03    0.45198E+03   -0.12744E+04    86   0.725E+02
DAV:   2     0.102515480285E+03   -0.34947E+03   -0.32547E+03   108   0.143E+02
DAV:   3    -0.105709708110E+03   -0.20823E+03   -0.20765E+03    92   0.118E+02
DAV:   4    -0.126629462943E+03   -0.20920E+02   -0.20838E+02    92   0.545E+01
DAV:   5    -0.127023264366E+03   -0.39380E+00   -0.39006E+00   100   0.871E+00    0.183E+01
RMM:   6    -0.118110957861E+03    0.89123E+01   -0.12963E+01    70   0.141E+01    0.101E+01
RMM:   7    -0.115961499843E+03    0.21495E+01   -0.97356E+00    70   0.120E+01    0.438E+00
RMM:   8    -0.115782929123E+03    0.17857E+00   -0.11500E+00    72   0.476E+00    0.240E+00
RMM:   9    -0.115703039409E+03    0.79890E-01   -0.34755E-01    70   0.249E+00    0.429E-01
RMM:  10    -0.115711445756E+03   -0.84063E-02   -0.87436E-02    80   0.114E+00    0.309E-01
RMM:  11    -0.115723559915E+03   -0.12114E-01   -0.41302E-02    70   0.778E-01    0.305E-01
RMM:  12    -0.115723135407E+03    0.42451E-03   -0.48154E-03    70   0.332E-01    0.154E-01
RMM:  13    -0.115738090696E+03   -0.14955E-01   -0.16519E-02    70   0.431E-01    0.105E-01
RMM:  14    -0.115738559620E+03   -0.46892E-03   -0.27222E-03    70   0.202E-01    0.556E-02
RMM:  15    -0.115748714622E+03   -0.10155E-01   -0.35780E-03    70   0.197E-01    0.522E-02
RMM:  16    -0.115749841252E+03   -0.11266E-02   -0.12490E-03    76   0.953E-02    0.329E-02
RMM:  17    -0.115750562647E+03   -0.72139E-03   -0.23846E-04    68   0.549E-02    0.250E-02
RMM:  18    -0.115752541045E+03   -0.19784E-02   -0.26843E-04    70   0.561E-02    0.101E-02
RMM:  19    -0.115753065781E+03   -0.52474E-03   -0.80274E-05    58   0.282E-02    0.105E-02
RMM:  20    -0.115753401129E+03   -0.33535E-03   -0.66946E-05    59   0.258E-02    0.609E-03
RMM:  21    -0.115753418258E+03   -0.17129E-04   -0.11543E-05    46   0.119E-02    0.290E-03
RMM:  22    -0.115753496035E+03   -0.77777E-04   -0.46461E-06    45   0.770E-03    0.135E-03
RMM:  23    -0.115753526030E+03   -0.29995E-04   -0.17590E-06    33   0.490E-03    0.115E-03
RMM:  24    -0.115753540570E+03   -0.14539E-04   -0.73740E-07    31   0.358E-03    0.499E-04
RMM:  25    -0.115753547379E+03   -0.68091E-05   -0.23835E-07    24   0.325E-03
   1 F= -.11599758E+03 E0= -.11599758E+03  d E =-.115998E+03
 BRION: g(F)=  0.700E+00 g(S)=  0.000E+00
 bond charge predicted
       N       E                     dE             d eps       ncg     rms          rms(c)
DAV:   1    -0.115768115201E+03   -0.14575E-01   -0.35098E-01    89   0.338E+00    0.173E-01
RMM:   2    -0.115768192944E+03   -0.77744E-04   -0.68086E-03    70   0.442E-01    0.102E-01
RMM:   3    -0.115768138355E+03    0.54589E-04   -0.11073E-03    70   0.186E-01    0.556E-02
RMM:   4    -0.115768174938E+03   -0.36583E-04   -0.47033E-04    70   0.107E-01    0.253E-02
RMM:   5    -0.115768186240E+03   -0.11302E-04   -0.68149E-05    63   0.444E-02    0.144E-02
RMM:   6    -0.115768193660E+03   -0.74204E-05   -0.20951E-05    48   0.218E-02
   2 F= -.11601214E+03 E0= -.11601214E+03  d E =-.145521E-01
 BRION: g(F)=  0.533E+00 g(S)=  0.000E+00 retain N=  1 mean eig= 1.03
 eig:   1.026
 bond charge predicted
       N       E                     dE             d eps       ncg     rms          rms(c)
DAV:   1    -0.115777666899E+03   -0.94807E-02   -0.27483E-01    92   0.303E+00    0.219E-01
RMM:   2    -0.115777315725E+03    0.35117E-03   -0.59787E-03    70   0.428E-01    0.115E-01
RMM:   3    -0.115777194223E+03    0.12150E-03   -0.10311E-03    70   0.177E-01    0.577E-02
RMM:   4    -0.115777217874E+03   -0.23651E-04   -0.60463E-04    70   0.115E-01    0.174E-02
RMM:   5    -0.115777216711E+03    0.11627E-05   -0.68546E-05    61   0.442E-02
   3 F= -.11602124E+03 E0= -.11602124E+03  d E =-.910555E-02
 BRION: g(F)=  0.468E+00 g(S)=  0.000E+00 retain N=  2 mean eig= 1.17
 eig:   1.166  1.166
 bond charge predicted
       N       E                     dE             d eps       ncg     rms          rms(c)
DAV:   1    -0.115791357935E+03   -0.14140E-01   -0.58338E-01    76   0.421E+00    0.227E-01
RMM:   2    -0.115791497621E+03   -0.13969E-03   -0.11336E-02    70   0.539E-01    0.130E-01
RMM:   3    -0.115791450056E+03    0.47565E-04   -0.18683E-03    70   0.233E-01    0.761E-02
RMM:   4    -0.115791521100E+03   -0.71044E-04   -0.69084E-04    70   0.131E-01    0.393E-02
RMM:   5    -0.115791547381E+03   -0.26282E-04   -0.11051E-04    67   0.560E-02    0.185E-02
RMM:   6    -0.115791558809E+03   -0.11428E-04   -0.31046E-05    53   0.263E-02    0.512E-03
RMM:   7    -0.115791560698E+03   -0.18892E-05   -0.90328E-06    45   0.137E-02
   4 F= -.11603546E+03 E0= -.11603546E+03  d E =-.142224E-01
 BRION: g(F)=  0.335E+00 g(S)=  0.000E+00 retain N=  3 mean eig= 2.89
 eig:   3.788  3.788  1.082
 bond charge predicted
       N       E                     dE             d eps       ncg     rms          rms(c)
DAV:   1    -0.115811850731E+03   -0.20292E-01   -0.18655E+00    70   0.782E+00    0.401E-01
RMM:   2    -0.115812586504E+03   -0.73577E-03   -0.23911E-02    70   0.879E-01    0.203E-01
RMM:   3    -0.115812804556E+03   -0.21805E-03   -0.43713E-03    70   0.366E-01    0.970E-02
RMM:   4    -0.115813005855E+03   -0.20130E-03   -0.13351E-03    76   0.181E-01    0.493E-02
RMM:   5    -0.115813045902E+03   -0.40046E-04   -0.23135E-04    74   0.811E-02    0.181E-02
RMM:   6    -0.115813058598E+03   -0.12696E-04   -0.53442E-05    59   0.386E-02    0.101E-02
RMM:   7    -0.115813066597E+03   -0.79994E-05   -0.13851E-05    46   0.178E-02
   5 F= -.11605694E+03 E0= -.11605694E+03  d E =-.214801E-01
 BRION: g(F)=  0.203E+00 g(S)=  0.000E+00 retain N=  4 mean eig= 4.72
 eig:   7.757  7.757  1.683  1.683
 bond charge predicted
       N       E                     dE             d eps       ncg     rms          rms(c)
DAV:   1    -0.115813405229E+03   -0.34663E-03   -0.26785E-02    92   0.925E-01    0.391E-02
RMM:   2    -0.115813422811E+03   -0.17583E-04   -0.40219E-04    70   0.113E-01    0.230E-02
RMM:   3    -0.115813426010E+03   -0.31985E-05   -0.66937E-05    65   0.461E-02
   6 F= -.11605729E+03 E0= -.11605729E+03  d E =-.344401E-03
 BRION: g(F)=  0.170E+00 g(S)=  0.000E+00 retain N=  4 mean eig= 4.31
 eig:   6.496  6.496  1.075  3.165
 bond charge predicted
       N       E                     dE             d eps       ncg     rms          rms(c)
DAV:   1    -0.115817134342E+03   -0.37115E-02   -0.22690E-01    70   0.255E+00    0.109E-01
RMM:   2    -0.115817325330E+03   -0.19099E-03   -0.35594E-03    70   0.310E-01    0.623E-02
RMM:   3    -0.115817387400E+03   -0.62070E-04   -0.55512E-04    70   0.131E-01    0.285E-02
RMM:   4    -0.115817410715E+03   -0.23315E-04   -0.15191E-04    70   0.646E-02    0.989E-03
RMM:   5    -0.115817415889E+03   -0.51736E-05   -0.34021E-05    52   0.299E-02
   7 F= -.11606126E+03 E0= -.11606126E+03  d E =-.397401E-02
 BRION: g(F)=  0.156E+00 g(S)=  0.000E+00 retain N=  5 mean eig= 3.80
 eig:   6.798  6.798  0.860  2.567  1.979
 bond charge predicted
       N       E                     dE             d eps       ncg     rms          rms(c)
DAV:   1    -0.115823757945E+03   -0.63472E-02   -0.72423E-01    70   0.451E+00    0.195E-01
RMM:   2    -0.115824458434E+03   -0.70049E-03   -0.11304E-02    70   0.542E-01    0.107E-01
RMM:   3    -0.115824630217E+03   -0.17178E-03   -0.17685E-03    70   0.230E-01    0.552E-02
RMM:   4    -0.115824713124E+03   -0.82907E-04   -0.47857E-04    72   0.110E-01    0.248E-02
RMM:   5    -0.115824730989E+03   -0.17865E-04   -0.10168E-04    64   0.518E-02    0.109E-02
RMM:   6    -0.115824737675E+03   -0.66861E-05   -0.17245E-05    47   0.229E-02
   8 F= -.11606851E+03 E0= -.11606851E+03  d E =-.724524E-02
 BRION: g(F)=  0.996E-01 g(S)=  0.000E+00 retain N=  4 mean eig= 4.52
 eig:   7.782  7.782  0.481  2.051
 bond charge predicted
       N       E                     dE             d eps       ncg     rms          rms(c)
DAV:   1    -0.115826923169E+03   -0.21922E-02   -0.32832E-01    70   0.298E+00    0.112E-01
RMM:   2    -0.115827229642E+03   -0.30647E-03   -0.50446E-03    70   0.361E-01    0.681E-02
RMM:   3    -0.115827309690E+03   -0.80048E-04   -0.76041E-04    70   0.152E-01    0.292E-02
RMM:   4    -0.115827341763E+03   -0.32073E-04   -0.19482E-04    71   0.724E-02    0.108E-02
RMM:   5    -0.115827349749E+03   -0.79866E-05   -0.45221E-05    55   0.333E-02
   9 F= -.11607111E+03 E0= -.11607111E+03  d E =-.260425E-02
 BRION: g(F)=  0.689E-01 g(S)=  0.000E+00 retain N=  3 mean eig= 4.34
 eig:   5.625  5.625  1.774
 bond charge predicted
       N       E                     dE             d eps       ncg     rms          rms(c)
DAV:   1    -0.115830170076E+03   -0.28283E-02   -0.37300E-01    70   0.316E+00    0.132E-01
RMM:   2    -0.115830509036E+03   -0.33896E-03   -0.61494E-03    70   0.392E-01    0.768E-02
RMM:   3    -0.115830589679E+03   -0.80643E-04   -0.93467E-04    70   0.166E-01    0.409E-02
RMM:   4    -0.115830631499E+03   -0.41820E-04   -0.24876E-04    70   0.825E-02    0.166E-02
RMM:   5    -0.115830645164E+03   -0.13665E-04   -0.74082E-05    58   0.391E-02    0.914E-03
RMM:   6    -0.115830651488E+03   -0.63244E-05   -0.81023E-06    46   0.154E-02
  10 F= -.11607437E+03 E0= -.11607437E+03  d E =-.325427E-02
 BRION: g(F)=  0.594E-01 g(S)=  0.000E+00 retain N=  4 mean eig= 4.33
 eig:   6.498  6.498  2.162  2.162
 bond charge predicted
       N       E                     dE             d eps       ncg     rms          rms(c)
DAV:   1    -0.115831879395E+03   -0.12342E-02   -0.10387E-01    70   0.167E+00    0.818E-02
RMM:   2    -0.115831952405E+03   -0.73009E-04   -0.19455E-03    70   0.218E-01    0.472E-02
RMM:   3    -0.115831963272E+03   -0.10868E-04   -0.28669E-04    70   0.919E-02    0.260E-02
RMM:   4    -0.115831974617E+03   -0.11345E-04   -0.10090E-04    63   0.501E-02    0.861E-03
RMM:   5    -0.115831978054E+03   -0.34364E-05   -0.17451E-05    47   0.207E-02
  11 F= -.11607572E+03 E0= -.11607572E+03  d E =-.135898E-02
 BRION: g(F)=  0.467E-01 g(S)=  0.000E+00 retain N=  2 mean eig= 2.39
 eig:   2.390  2.390
 bond charge predicted
       N       E                     dE             d eps       ncg     rms          rms(c)
DAV:   1    -0.115835186319E+03   -0.32117E-02   -0.32834E-01    70   0.295E+00    0.118E-01
RMM:   2    -0.115835499702E+03   -0.31338E-03   -0.50874E-03    70   0.357E-01    0.684E-02
RMM:   3    -0.115835590719E+03   -0.91017E-04   -0.77691E-04    70   0.152E-01    0.321E-02
RMM:   4    -0.115835627193E+03   -0.36474E-04   -0.20409E-04    71   0.716E-02    0.128E-02
RMM:   5    -0.115835634121E+03   -0.69285E-05   -0.38755E-05    53   0.327E-02
  12 F= -.11607936E+03 E0= -.11607936E+03  d E =-.363222E-02
 BRION: g(F)=  0.403E-01 g(S)=  0.000E+00 retain N=  2 mean eig= 2.54
 eig:   1.927  3.149
 bond charge predicted
       N       E                     dE             d eps       ncg     rms          rms(c)
DAV:   1    -0.115838188561E+03   -0.25614E-02   -0.17230E-01    70   0.216E+00    0.864E-02
RMM:   2    -0.115838347218E+03   -0.15866E-03   -0.26605E-03    70   0.261E-01    0.497E-02
RMM:   3    -0.115838402271E+03   -0.55053E-04   -0.41545E-04    70   0.112E-01    0.220E-02
RMM:   4    -0.115838422746E+03   -0.20475E-04   -0.10433E-04    61   0.531E-02    0.807E-03
RMM:   5    -0.115838428766E+03   -0.60196E-05   -0.24658E-05    51   0.247E-02
  13 F= -.11608214E+03 E0= -.11608214E+03  d E =-.278793E-02
 BRION: g(F)=  0.378E-01 g(S)=  0.000E+00 retain N=  3 mean eig= 4.45
 eig:   1.160  6.100  6.100
 bond charge predicted
       N       E                     dE             d eps       ncg     rms          rms(c)
DAV:   1    -0.115840943751E+03   -0.25210E-02   -0.16021E-01    70   0.208E+00    0.839E-02
RMM:   2    -0.115841090927E+03   -0.14718E-03   -0.24996E-03    70   0.252E-01    0.485E-02
RMM:   3    -0.115841141868E+03   -0.50941E-04   -0.38796E-04    70   0.108E-01    0.223E-02
RMM:   4    -0.115841161918E+03   -0.20050E-04   -0.10302E-04    62   0.513E-02    0.894E-03
RMM:   5    -0.115841166510E+03   -0.45921E-05   -0.19016E-05    49   0.233E-02
  14 F= -.11608487E+03 E0= -.11608487E+03  d E =-.272499E-02
 BRION: g(F)=  0.363E-01 g(S)=  0.000E+00 retain N=  3 mean eig= 5.07
 eig:   6.749  6.749  1.711
 bond charge predicted
       N       E                     dE             d eps       ncg     rms          rms(c)
DAV:   1    -0.115844738871E+03   -0.35770E-02   -0.43608E-01    70   0.344E+00    0.141E-01
RMM:   2    -0.115845157761E+03   -0.41889E-03   -0.68119E-03    70   0.415E-01    0.801E-02
RMM:   3    -0.115845279413E+03   -0.12165E-03   -0.10521E-03    70   0.177E-01    0.388E-02
RMM:   4    -0.115845326726E+03   -0.47313E-04   -0.27867E-04    72   0.841E-02    0.159E-02
RMM:   5    -0.115845336557E+03   -0.98306E-05   -0.55763E-05    57   0.389E-02
  15 F= -.11608901E+03 E0= -.11608901E+03  d E =-.413978E-02
 BRION: g(F)=  0.339E-01 g(S)=  0.000E+00 retain N=  3 mean eig= 4.91
 eig:   6.592  6.592  1.550
 bond charge predicted
       N       E                     dE             d eps       ncg     rms          rms(c)
DAV:   1    -0.115847286937E+03   -0.19602E-02   -0.12365E-01    70   0.184E+00    0.764E-02
RMM:   2    -0.115847394971E+03   -0.10803E-03   -0.19978E-03    70   0.227E-01    0.446E-02
RMM:   3    -0.115847429576E+03   -0.34605E-04   -0.30973E-04    70   0.970E-02    0.207E-02
RMM:   4    -0.115847444579E+03   -0.15003E-04   -0.85743E-05    61   0.483E-02    0.669E-03
RMM:   5    -0.115847448768E+03   -0.41887E-05   -0.17903E-05    49   0.217E-02
  16 F= -.11609113E+03 E0= -.11609113E+03  d E =-.211691E-02
 BRION: g(F)=  0.319E-01 g(S)=  0.000E+00 retain N=  3 mean eig= 2.95
 eig:   3.887  3.887  1.085
 bond charge predicted
       N       E                     dE             d eps       ncg     rms          rms(c)
DAV:   1    -0.115850128583E+03   -0.26840E-02   -0.25982E-01    70   0.265E+00    0.107E-01
RMM:   2    -0.115850369653E+03   -0.24107E-03   -0.40287E-03    70   0.318E-01    0.614E-02
RMM:   3    -0.115850450678E+03   -0.81025E-04   -0.61875E-04    70   0.135E-01    0.288E-02
RMM:   4    -0.115850479196E+03   -0.28518E-04   -0.16458E-04    68   0.644E-02    0.117E-02
RMM:   5    -0.115850485234E+03   -0.60375E-05   -0.31141E-05    51   0.293E-02
  17 F= -.11609414E+03 E0= -.11609414E+03  d E =-.301050E-02
 BRION: g(F)=  0.299E-01 g(S)=  0.000E+00 retain N=  3 mean eig= 5.22
 eig:   7.155  7.155  1.343
 bond charge predicted
       N       E                     dE             d eps       ncg     rms          rms(c)
DAV:   1    -0.115853493353E+03   -0.30142E-02   -0.39027E-01    70   0.324E+00    0.129E-01
RMM:   2    -0.115853865064E+03   -0.37171E-03   -0.59906E-03    70   0.389E-01    0.748E-02
RMM:   3    -0.115853983833E+03   -0.11877E-03   -0.91677E-04    70   0.165E-01    0.326E-02
RMM:   4    -0.115854021207E+03   -0.37374E-04   -0.23078E-04    70   0.783E-02    0.118E-02
RMM:   5    -0.115854031174E+03   -0.99667E-05   -0.58037E-05    57   0.370E-02
  18 F= -.11609766E+03 E0= -.11609766E+03  d E =-.352489E-02
 BRION: g(F)=  0.285E-01 g(S)=  0.000E+00 retain N=  2 mean eig= 7.18
 eig:   7.181  7.181
 bond charge predicted
       N       E                     dE             d eps       ncg     rms          rms(c)
DAV:   1    -0.115856674384E+03   -0.26532E-02   -0.31834E-01    70   0.292E+00    0.114E-01
RMM:   2    -0.115856978614E+03   -0.30423E-03   -0.49318E-03    70   0.351E-01    0.675E-02
RMM:   3    -0.115857076038E+03   -0.97424E-04   -0.75033E-04    70   0.150E-01    0.298E-02
RMM:   4    -0.115857107735E+03   -0.31697E-04   -0.19172E-04    70   0.710E-02    0.110E-02
RMM:   5    -0.115857116453E+03   -0.87187E-05   -0.45069E-05    54   0.333E-02
  19 F= -.11610072E+03 E0= -.11610072E+03  d E =-.306081E-02
 BRION: g(F)=  0.273E-01 g(S)=  0.000E+00 retain N=  2 mean eig= 6.70
 eig:   6.699  6.699
 bond charge predicted
       N       E                     dE             d eps       ncg     rms          rms(c)
DAV:   1    -0.115860354056E+03   -0.32463E-02   -0.63248E-01    70   0.412E+00    0.164E-01
RMM:   2    -0.115860972084E+03   -0.61803E-03   -0.97557E-03    70   0.494E-01    0.952E-02
RMM:   3    -0.115861150851E+03   -0.17877E-03   -0.14834E-03    70   0.210E-01    0.428E-02
RMM:   4    -0.115861210500E+03   -0.59649E-04   -0.37692E-04    71   0.995E-02    0.158E-02
RMM:   5    -0.115861225698E+03   -0.15198E-04   -0.95025E-05    62   0.471E-02    0.717E-03
RMM:   6    -0.115861232214E+03   -0.65159E-05   -0.14361E-05    47   0.209E-02
  20 F= -.11610480E+03 E0= -.11610480E+03  d E =-.407667E-02
 BRION: g(F)=  0.257E-01 g(S)=  0.000E+00 retain N=  2 mean eig= 5.34
 eig:   5.342  5.342
 bond charge predicted
       N       E                     dE             d eps       ncg     rms          rms(c)
DAV:   1    -0.115862774247E+03   -0.15485E-02   -0.10498E-01    70   0.168E+00    0.663E-02
RMM:   2    -0.115862870087E+03   -0.95839E-04   -0.16606E-03    70   0.204E-01    0.402E-02
RMM:   3    -0.115862900470E+03   -0.30383E-04   -0.24876E-04    70   0.860E-02    0.178E-02
RMM:   4    -0.115862912522E+03   -0.12052E-04   -0.67202E-05    58   0.417E-02    0.559E-03
RMM:   5    -0.115862916581E+03   -0.40587E-05   -0.13528E-05    48   0.179E-02
  21 F= -.11610648E+03 E0= -.11610648E+03  d E =-.168373E-02
 BRION: g(F)=  0.248E-01 g(S)=  0.000E+00 retain N=  3 mean eig= 5.65
 eig:   7.739  7.739  1.471
 bond charge predicted
       N       E                     dE             d eps       ncg     rms          rms(c)
DAV:   1    -0.115865992152E+03   -0.30796E-02   -0.67529E-01    70   0.425E+00    0.168E-01
RMM:   2    -0.115866647554E+03   -0.65540E-03   -0.10398E-02    70   0.508E-01    0.984E-02
RMM:   3    -0.115866835199E+03   -0.18765E-03   -0.15670E-03    70   0.215E-01    0.447E-02
RMM:   4    -0.115866897568E+03   -0.62369E-04   -0.39932E-04    71   0.102E-01    0.169E-02
RMM:   5    -0.115866912062E+03   -0.14494E-04   -0.99761E-05    62   0.479E-02    0.810E-03
RMM:   6    -0.115866917801E+03   -0.57395E-05   -0.13710E-05    47   0.213E-02
  22 F= -.11611044E+03 E0= -.11611044E+03  d E =-.395242E-02
 BRION: g(F)=  0.230E-01 g(S)=  0.000E+00 retain N=  2 mean eig= 5.50
 eig:   3.048  7.961
 bond charge predicted
       N       E                     dE             d eps       ncg     rms          rms(c)
DAV:   1    -0.115869822920E+03   -0.29109E-02   -0.57634E-01    70   0.392E+00    0.151E-01
RMM:   2    -0.115870377414E+03   -0.55449E-03   -0.87599E-03    70   0.467E-01    0.906E-02
RMM:   3    -0.115870541039E+03   -0.16363E-03   -0.13055E-03    70   0.197E-01    0.372E-02
RMM:   4    -0.115870591837E+03   -0.50797E-04   -0.32906E-04    72   0.923E-02    0.127E-02
RMM:   5    -0.115870605400E+03   -0.13563E-04   -0.79277E-05    59   0.425E-02    0.450E-03
RMM:   6    -0.115870610692E+03   -0.52923E-05   -0.10930E-05    47   0.187E-02
  23 F= -.11611410E+03 E0= -.11611410E+03  d E =-.366015E-02
 BRION: g(F)=  0.216E-01 g(S)=  0.000E+00
 BRIONS problems: POTIM should be increased
 retain N=  1 mean eig=14.40
 eig:  14.396
 bond charge predicted
       N       E                     dE             d eps       ncg     rms          rms(c)
DAV:   1    -0.115872597241E+03   -0.19918E-02   -0.20765E-01    70   0.235E+00    0.892E-02
RMM:   2    -0.115872791662E+03   -0.19442E-03   -0.31753E-03    70   0.281E-01    0.546E-02
RMM:   3    -0.115872854271E+03   -0.62609E-04   -0.46906E-04    70   0.118E-01    0.216E-02
RMM:   4    -0.115872874713E+03   -0.20443E-04   -0.11910E-04    62   0.556E-02    0.718E-03
RMM:   5    -0.115872881439E+03   -0.67256E-05   -0.25888E-05    51   0.250E-02
  24 F= -.11611635E+03 E0= -.11611635E+03  d E =-.225133E-02
 BRION: g(F)=  0.209E-01 g(S)=  0.000E+00 retain N=  1 mean eig= 2.46
 eig:   2.457
 bond charge predicted
       N       E                     dE             d eps       ncg     rms          rms(c)
DAV:   1    -0.115872650138E+03    0.22458E-03   -0.87919E-03    76   0.487E-01    0.215E-02
RMM:   2    -0.115872661324E+03   -0.11187E-04   -0.15571E-04    63   0.619E-02    0.131E-02
RMM:   3    -0.115872665671E+03   -0.43468E-05   -0.21733E-05    50   0.252E-02
  25 F= -.11611614E+03 E0= -.11611614E+03  d E =0.210890E-03
 BRION: g(F)=  0.204E-01 g(S)=  0.000E+00 retain N=  1 mean eig= 0.55
 eig:   0.546
 bond charge predicted
       N       E                     dE             d eps       ncg     rms          rms(c)
DAV:   1    -0.115873278872E+03   -0.61755E-03   -0.13537E-02    76   0.603E-01    0.229E-02
RMM:   2    -0.115873292086E+03   -0.13214E-04   -0.20759E-04    68   0.719E-02    0.138E-02
RMM:   3    -0.115873296912E+03   -0.48263E-05   -0.29660E-05    50   0.297E-02
  26 F= -.11611676E+03 E0= -.11611676E+03  d E =-.625454E-03
 BRION: g(F)=  0.194E-01 g(S)=  0.000E+00 retain N=  2 mean eig= 1.14
 eig:   0.124  2.156
 bond charge predicted
       N       E                     dE             d eps       ncg     rms          rms(c)
DAV:   1    -0.115877077833E+03   -0.37857E-02   -0.94828E-01    70   0.505E+00    0.192E-01
RMM:   2    -0.115878002528E+03   -0.92470E-03   -0.14325E-02    70   0.600E-01    0.117E-01
RMM:   3    -0.115878250743E+03   -0.24822E-03   -0.20797E-03    70   0.251E-01    0.450E-02
RMM:   4    -0.115878324635E+03   -0.73892E-04   -0.51670E-04    72   0.118E-01    0.151E-02
RMM:   5    -0.115878340575E+03   -0.15940E-04   -0.12908E-04    65   0.546E-02    0.495E-03
RMM:   6    -0.115878344321E+03   -0.37462E-05   -0.15904E-05    48   0.233E-02
  27 F= -.11612179E+03 E0= -.11612179E+03  d E =-.502355E-02
 BRION: g(F)=  0.177E-01 g(S)=  0.000E+00 retain N=  2 mean eig= 4.38
 eig:   3.112  5.654
 bond charge predicted
       N       E                     dE             d eps       ncg     rms          rms(c)
DAV:   1    -0.115877593619E+03    0.74696E-03   -0.31500E-02    70   0.931E-01    0.485E-02
RMM:   2    -0.115877618259E+03   -0.24639E-04   -0.61972E-04    70   0.122E-01    0.274E-02
RMM:   3    -0.115877622646E+03   -0.43872E-05   -0.90386E-05    59   0.514E-02
  28 F= -.11612105E+03 E0= -.11612105E+03  d E =0.736380E-03
 BRION: g(F)=  0.182E-01 g(S)=  0.000E+00 retain N=  1 mean eig= 0.56
 eig:   0.558
 bond charge predicted
       N       E                     dE             d eps       ncg     rms          rms(c)
DAV:   1    -0.115878502794E+03   -0.88453E-03   -0.31123E-02    73   0.916E-01    0.367E-02
RMM:   2    -0.115878534531E+03   -0.31737E-04   -0.48782E-04    70   0.109E-01    0.210E-02
RMM:   3    -0.115878541976E+03   -0.74452E-05   -0.65231E-05    57   0.443E-02
  29 F= -.11612197E+03 E0= -.11612197E+03  d E =-.919219E-03
 BRION: g(F)=  0.151E-01 g(S)=  0.000E+00 retain N=  2 mean eig= 1.34
 eig:   0.743  1.927
 bond charge predicted
       N       E                     dE             d eps       ncg     rms          rms(c)
DAV:   1    -0.115879127466E+03   -0.59294E-03   -0.14827E-02    73   0.631E-01    0.254E-02
RMM:   2    -0.115879142387E+03   -0.14921E-04   -0.24558E-04    70   0.784E-02    0.162E-02
RMM:   3    -0.115879147574E+03   -0.51870E-05   -0.39032E-05    54   0.336E-02
  30 F= -.11612257E+03 E0= -.11612257E+03  d E =-.605269E-03
 BRION: g(F)=  0.150E-01 g(S)=  0.000E+00 retain N=  2 mean eig= 0.95
 eig:   0.952  0.952
 bond charge predicted
       N       E                     dE             d eps       ncg     rms          rms(c)
DAV:   1    -0.115879818232E+03   -0.67585E-03   -0.19391E-02    70   0.724E-01    0.289E-02
RMM:   2    -0.115879835310E+03   -0.17079E-04   -0.31440E-04    70   0.889E-02    0.177E-02
RMM:   3    -0.115879841281E+03   -0.59712E-05   -0.49356E-05    55   0.380E-02
  31 F= -.11612326E+03 E0= -.11612326E+03  d E =-.683555E-03
 BRION: g(F)=  0.145E-01 g(S)=  0.000E+00 retain N=  3 mean eig= 4.14
 eig:   5.747  5.747  0.924
 bond charge predicted
       N       E                     dE             d eps       ncg     rms          rms(c)
DAV:   1    -0.115882303138E+03   -0.24678E-02   -0.71449E+00    70   0.138E+01    0.533E-01
RMM:   2    -0.115890017157E+03   -0.77140E-02   -0.10946E-01    70   0.165E+00    0.319E-01
RMM:   3    -0.115891434937E+03   -0.14178E-02   -0.15637E-02    70   0.686E-01    0.140E-01
RMM:   4    -0.115891956330E+03   -0.52139E-03   -0.39440E-03    72   0.324E-01    0.444E-02
RMM:   5    -0.115892078411E+03   -0.12208E-03   -0.97232E-04    81   0.148E-01    0.225E-02
RMM:   6    -0.115892104965E+03   -0.26554E-04   -0.11519E-04    61   0.608E-02    0.627E-03
RMM:   7    -0.115892125216E+03   -0.20251E-04   -0.36513E-05    50   0.311E-02    0.645E-03
RMM:   8    -0.115892152279E+03   -0.27063E-04   -0.83706E-06    46   0.145E-02    0.132E-03
RMM:   9    -0.115892163989E+03   -0.11710E-04   -0.20425E-06    40   0.707E-03    0.107E-03
RMM:  10    -0.115892195978E+03   -0.31988E-04   -0.41027E-06    42   0.669E-03    0.192E-03
RMM:  11    -0.115892200724E+03   -0.47466E-05   -0.92975E-07    30   0.388E-03
  32 F= -.11613550E+03 E0= -.11613550E+03  d E =-.122383E-01
 BRION: g(F)=  0.117E-01 g(S)=  0.000E+00
 BRIONS problems: POTIM should be increased
 retain N=  1 mean eig=26.55
 eig:  26.547
 bond charge predicted
       N       E                     dE             d eps       ncg     rms          rms(c)
DAV:   1    -0.115889474498E+03    0.27215E-02   -0.29465E-01    70   0.282E+00    0.110E-01
RMM:   2    -0.115889734921E+03   -0.26042E-03   -0.44846E-03    70   0.335E-01    0.662E-02
RMM:   3    -0.115889823371E+03   -0.88450E-04   -0.64670E-04    70   0.140E-01    0.276E-02
RMM:   4    -0.115889850083E+03   -0.26711E-04   -0.15871E-04    66   0.672E-02    0.835E-03
RMM:   5    -0.115889855273E+03   -0.51902E-05   -0.46241E-05    55   0.310E-02
  33 F= -.11613319E+03 E0= -.11613319E+03  d E =0.230449E-02
 BRION: g(F)=  0.117E-01 g(S)=  0.000E+00 retain N=  1 mean eig= 2.85
 eig:   2.853
 bond charge predicted
       N       E                     dE             d eps       ncg     rms          rms(c)
DAV:   1    -0.115891288877E+03   -0.14388E-02   -0.12603E-01    76   0.183E+00    0.709E-02
RMM:   2    -0.115891399807E+03   -0.11093E-03   -0.18858E-03    70   0.216E-01    0.431E-02
RMM:   3    -0.115891440367E+03   -0.40560E-04   -0.26539E-04    70   0.891E-02    0.184E-02
RMM:   4    -0.115891453055E+03   -0.12688E-04   -0.63805E-05    56   0.422E-02    0.556E-03
RMM:   5    -0.115891455202E+03   -0.21468E-05   -0.16354E-05    48   0.185E-02
  34 F= -.11613477E+03 E0= -.11613477E+03  d E =-.157447E-02
 BRION: g(F)=  0.104E-01 g(S)=  0.000E+00 retain N=  1 mean eig= 2.10
 eig:   2.097
 bond charge predicted
       N       E                     dE             d eps       ncg     rms          rms(c)
DAV:   1    -0.115891752846E+03   -0.29979E-03   -0.54855E-03    73   0.380E-01    0.148E-02
RMM:   2    -0.115891757896E+03   -0.50504E-05   -0.88781E-05    58   0.468E-02
  35 F= -.11613507E+03 E0= -.11613507E+03  d E =-.302197E-03
 BRION: g(F)=  0.103E-01 g(S)=  0.000E+00 retain N=  2 mean eig= 1.54
 eig:   2.573  0.502
 bond charge predicted
       N       E                     dE             d eps       ncg     rms          rms(c)
DAV:   1    -0.115893727449E+03   -0.19746E-02   -0.31925E-01    70   0.291E+00    0.112E-01
RMM:   2    -0.115894012794E+03   -0.28534E-03   -0.48408E-03    70   0.345E-01    0.694E-02
RMM:   3    -0.115894108904E+03   -0.96111E-04   -0.70714E-04    70   0.145E-01    0.257E-02
RMM:   4    -0.115894136502E+03   -0.27597E-04   -0.17673E-04    66   0.678E-02    0.853E-03
RMM:   5    -0.115894141496E+03   -0.49940E-05   -0.41404E-05    55   0.306E-02
  36 F= -.11613742E+03 E0= -.11613742E+03  d E =-.235685E-02
 BRION: g(F)=  0.101E-01 g(S)=  0.000E+00 retain N=  2 mean eig= 3.09
 eig:   0.959  5.225
 bond charge predicted
       N       E                     dE             d eps       ncg     rms          rms(c)
DAV:   1    -0.115893999981E+03    0.13652E-03   -0.36605E-03    84   0.322E-01    0.221E-02
RMM:   2    -0.115894002718E+03   -0.27369E-05   -0.93397E-05    57   0.486E-02
  37 F= -.11613728E+03 E0= -.11613728E+03  d E =0.140717E-03
 BRION: g(F)=  0.102E-01 g(S)=  0.000E+00 retain N=  1 mean eig= 0.56
 eig:   0.558
 bond charge predicted
       N       E                     dE             d eps       ncg     rms          rms(c)
DAV:   1    -0.115894399246E+03   -0.39926E-03   -0.10128E-02    70   0.519E-01    0.197E-02
RMM:   2    -0.115894411921E+03   -0.12676E-04   -0.17321E-04    63   0.651E-02    0.111E-02
RMM:   3    -0.115894415063E+03   -0.31416E-05   -0.24774E-05    49   0.264E-02
  38 F= -.11613770E+03 E0= -.11613770E+03  d E =-.412600E-03
 BRION: g(F)=  0.972E-02 g(S)=  0.000E+00 retain N=  2 mean eig= 0.26
 eig:   0.507  0.014
 bond charge predicted
       N       E                     dE             d eps       ncg     rms          rms(c)
DAV:   1    -0.115894692978E+03   -0.28106E-03   -0.48415E-03    73   0.358E-01    0.148E-02
RMM:   2    -0.115894697196E+03   -0.42179E-05   -0.79580E-05    57   0.444E-02
  39 F= -.11613797E+03 E0= -.11613797E+03  d E =-.276452E-03
 BRION: g(F)=  0.964E-02 g(S)=  0.000E+00 retain N=  2 mean eig= 0.62
 eig:   0.619  0.619
 bond charge predicted
       N       E                     dE             d eps       ncg     rms          rms(c)
DAV:   1    -0.115895271130E+03   -0.57815E-03   -0.21711E-02    70   0.758E-01    0.315E-02
RMM:   2    -0.115895287994E+03   -0.16864E-04   -0.34559E-04    69   0.918E-02    0.198E-02
RMM:   3    -0.115895296992E+03   -0.89979E-05   -0.52126E-05    54   0.391E-02
  40 F= -.11613857E+03 E0= -.11613857E+03  d E =-.594842E-03
 BRION: g(F)=  0.957E-02 g(S)=  0.000E+00 retain N=  2 mean eig= 1.26
 eig:   1.263  1.263
 bond charge predicted
       N       E                     dE             d eps       ncg     rms          rms(c)
DAV:   1    -0.115895989937E+03   -0.70194E-03   -0.36088E-02    70   0.973E-01    0.378E-02
RMM:   2    -0.115896023671E+03   -0.33734E-04   -0.58808E-04    70   0.120E-01    0.238E-02
RMM:   3    -0.115896036593E+03   -0.12922E-04   -0.90424E-05    59   0.512E-02    0.974E-03
RMM:   4    -0.115896040414E+03   -0.38206E-05   -0.23266E-05    52   0.240E-02
  41 F= -.11613931E+03 E0= -.11613931E+03  d E =-.738105E-03
 BRION: g(F)=  0.955E-02 g(S)=  0.000E+00 retain N=  3 mean eig= 2.82
 eig:   3.841  3.841  0.769
 bond charge predicted
       N       E                     dE             d eps       ncg     rms          rms(c)
DAV:   1    -0.115898703887E+03   -0.26673E-02   -0.24108E+00    70   0.794E+00    0.303E-01
RMM:   2    -0.115901148404E+03   -0.24445E-02   -0.36616E-02    70   0.948E-01    0.184E-01
RMM:   3    -0.115901706666E+03   -0.55826E-03   -0.52885E-03    70   0.396E-01    0.755E-02
RMM:   4    -0.115901905076E+03   -0.19841E-03   -0.13506E-03    72   0.185E-01    0.243E-02
RMM:   5    -0.115901945641E+03   -0.40565E-04   -0.31201E-04    74   0.834E-02    0.111E-02
RMM:   6    -0.115901955001E+03   -0.93595E-05   -0.38910E-05    51   0.356E-02
  42 F= -.11614515E+03 E0= -.11614515E+03  d E =-.584307E-02
 BRION: g(F)=  0.861E-02 g(S)=  0.000E+00
 BRIONS problems: POTIM should be increased
 retain N=  1 mean eig=14.05
 eig:  14.053
 bond charge predicted
       N       E                     dE             d eps       ncg     rms          rms(c)
DAV:   1    -0.115902544562E+03   -0.59892E-03   -0.30809E-02    76   0.901E-01    0.349E-02
RMM:   2    -0.115902575125E+03   -0.30563E-04   -0.49726E-04    70   0.110E-01    0.216E-02
RMM:   3    -0.115902590149E+03   -0.15024E-04   -0.74233E-05    57   0.466E-02    0.908E-03
RMM:   4    -0.115902599644E+03   -0.94949E-05   -0.17875E-05    50   0.214E-02
  43 F= -.11614579E+03 E0= -.11614579E+03  d E =-.642600E-03
 BRION: g(F)=  0.852E-02 g(S)=  0.000E+00 retain N=  1 mean eig= 0.99
 eig:   0.989
 bond charge predicted
       N       E                     dE             d eps       ncg     rms          rms(c)
DAV:   1    -0.115902632482E+03   -0.42333E-04   -0.69841E-04    92   0.140E-01    0.122E-02
RMM:   2    -0.115902634314E+03   -0.18317E-05   -0.20285E-05    48   0.226E-02
  44 F= -.11614582E+03 E0= -.11614582E+03  d E =-.313471E-04
 BRION: g(F)=  0.840E-02 g(S)=  0.000E+00 retain N=  1 mean eig= 0.48
 eig:   0.477
 bond charge predicted
       N       E                     dE             d eps       ncg     rms          rms(c)
DAV:   1    -0.115902880961E+03   -0.24848E-03   -0.49920E-03    76   0.361E-01    0.142E-02
RMM:   2    -0.115902887360E+03   -0.63982E-05   -0.81928E-05    55   0.446E-02
  45 F= -.11614607E+03 E0= -.11614607E+03  d E =-.252156E-03
 BRION: g(F)=  0.824E-02 g(S)=  0.000E+00 retain N=  1 mean eig= 3.12
 eig:   3.117
 bond charge predicted
       N       E                     dE             d eps       ncg     rms          rms(c)
DAV:   1    -0.115903687355E+03   -0.80639E-03   -0.61891E-02    70   0.128E+00    0.515E-02
RMM:   2    -0.115903739668E+03   -0.52313E-04   -0.98194E-04    70   0.155E-01    0.318E-02
RMM:   3    -0.115903762788E+03   -0.23120E-04   -0.14442E-04    62   0.655E-02    0.121E-02
RMM:   4    -0.115903770812E+03   -0.80239E-05   -0.36379E-05    54   0.302E-02
  46 F= -.11614695E+03 E0= -.11614695E+03  d E =-.872109E-03
 BRION: g(F)=  0.824E-02 g(S)=  0.000E+00 retain N=  2 mean eig= 7.55
 eig:   7.548  7.548
 bond charge predicted
       N       E                     dE             d eps       ncg     rms          rms(c)
DAV:   1    -0.115903039486E+03    0.72330E-03   -0.65982E+00    70   0.131E+01    0.511E-01
RMM:   2    -0.115910315043E+03   -0.72756E-02   -0.10220E-01    70   0.158E+00    0.305E-01
RMM:   3    -0.115911610029E+03   -0.12950E-02   -0.14651E-02    70   0.659E-01    0.132E-01
RMM:   4    -0.115912101129E+03   -0.49110E-03   -0.37083E-03    72   0.309E-01    0.421E-02
RMM:   5    -0.115912213222E+03   -0.11209E-03   -0.85675E-04    78   0.139E-01    0.200E-02
RMM:   6    -0.115912237706E+03   -0.24484E-04   -0.11527E-04    64   0.602E-02    0.603E-03
RMM:   7    -0.115912257639E+03   -0.19933E-04   -0.32737E-05    50   0.297E-02    0.555E-03
RMM:   8    -0.115912286149E+03   -0.28510E-04   -0.78710E-06    46   0.139E-02    0.178E-03
RMM:   9    -0.115912294666E+03   -0.85174E-05   -0.16820E-06    42   0.660E-03
  47 F= -.11615538E+03 E0= -.11615538E+03  d E =-.843320E-02
 BRION: g(F)=  0.702E-02 g(S)=  0.000E+00
 BRIONS problems: POTIM should be increased
 retain N=  1 mean eig=24.90
 eig:  24.901
 bond charge predicted
       N       E                     dE             d eps       ncg     rms          rms(c)
DAV:   1    -0.115910665358E+03    0.16208E-02   -0.20125E-01    73   0.229E+00    0.873E-02
RMM:   2    -0.115910858783E+03   -0.19343E-03   -0.30843E-03    70   0.275E-01    0.533E-02
RMM:   3    -0.115910928930E+03   -0.70147E-04   -0.44430E-04    70   0.115E-01    0.211E-02
RMM:   4    -0.115910951459E+03   -0.22529E-04   -0.10890E-04    61   0.538E-02    0.682E-03
RMM:   5    -0.115910957102E+03   -0.56432E-05   -0.25667E-05    51   0.243E-02
  48 F= -.11615406E+03 E0= -.11615406E+03  d E =0.132097E-02
 BRION: g(F)=  0.710E-02 g(S)=  0.000E+00 retain N=  1 mean eig= 1.44
 eig:   1.444
 bond charge predicted
       N       E                     dE             d eps       ncg     rms          rms(c)
DAV:   1    -0.115911769446E+03   -0.81799E-03   -0.85444E-02    76   0.149E+00    0.564E-02
RMM:   2    -0.115911844604E+03   -0.75159E-04   -0.12723E-03    70   0.176E-01    0.346E-02
RMM:   3    -0.115911876961E+03   -0.32356E-04   -0.17814E-04    65   0.729E-02    0.133E-02
RMM:   4    -0.115911884922E+03   -0.79611E-05   -0.42694E-05    54   0.331E-02
  49 F= -.11615497E+03 E0= -.11615497E+03  d E =-.915488E-03
 BRION: g(F)=  0.632E-02 g(S)=  0.000E+00 retain N=  1 mean eig= 1.90
 eig:   1.901
 bond charge predicted
       N       E                     dE             d eps       ncg     rms          rms(c)
DAV:   1    -0.115912190425E+03   -0.31346E-03   -0.10269E-02    73   0.523E-01    0.202E-02
RMM:   2    -0.115912199689E+03   -0.92640E-05   -0.16525E-04    65   0.639E-02    0.127E-02
RMM:   3    -0.115912202883E+03   -0.31944E-05   -0.24941E-05    52   0.269E-02
  50 F= -.11615529E+03 E0= -.11615529E+03  d E =-.315649E-03
 BRION: g(F)=  0.631E-02 g(S)=  0.000E+00 retain N=  2 mean eig= 1.60
 eig:   1.596  1.596
 bond charge predicted
       N       E                     dE             d eps       ncg     rms          rms(c)
DAV:   1    -0.115912955722E+03   -0.75603E-03   -0.76665E-02    70   0.142E+00    0.547E-02
RMM:   2    -0.115913022793E+03   -0.67072E-04   -0.11972E-03    70   0.172E-01    0.336E-02
RMM:   3    -0.115913049840E+03   -0.27046E-04   -0.17789E-04    64   0.725E-02    0.135E-02
RMM:   4    -0.115913056940E+03   -0.71005E-05   -0.45430E-05    55   0.338E-02
  51 F= -.11615613E+03 E0= -.11615613E+03  d E =-.838696E-03
 BRION: g(F)=  0.621E-02 g(S)=  0.000E+00 retain N=  2 mean eig= 2.65
 eig:   1.794  3.503
 bond charge predicted
       N       E                     dE             d eps       ncg     rms          rms(c)
DAV:   1    -0.115913349498E+03   -0.29966E-03   -0.10923E-02    76   0.544E-01    0.245E-02
RMM:   2    -0.115913359297E+03   -0.97988E-05   -0.19851E-04    67   0.700E-02    0.148E-02
RMM:   3    -0.115913361828E+03   -0.25308E-05   -0.29982E-05    52   0.295E-02
  52 F= -.11615643E+03 E0= -.11615643E+03  d E =-.304801E-03
 BRION: g(F)=  0.625E-02 g(S)=  0.000E+00 retain N=  2 mean eig= 1.65
 eig:   2.797  0.513
 bond charge predicted
       N       E                     dE             d eps       ncg     rms          rms(c)
DAV:   1    -0.115913812474E+03   -0.45318E-03   -0.24388E-02    70   0.802E-01    0.309E-02
RMM:   2    -0.115913834304E+03   -0.21829E-04   -0.38327E-04    70   0.975E-02    0.191E-02
RMM:   3    -0.115913843558E+03   -0.92542E-05   -0.58356E-05    56   0.413E-02
  53 F= -.11615691E+03 E0= -.11615691E+03  d E =-.475615E-03
 BRION: g(F)=  0.605E-02 g(S)=  0.000E+00 retain N=  3 mean eig= 5.00
 eig:   6.971  6.971  1.050
 bond charge predicted
       N       E                     dE             d eps       ncg     rms          rms(c)
DAV:   1    -0.115906626856E+03    0.72074E-02   -0.11577E+01    70   0.174E+01    0.703E-01
RMM:   2    -0.115919861792E+03   -0.13235E-01   -0.18246E-01    70   0.212E+00    0.406E-01
RMM:   3    -0.115922026563E+03   -0.21648E-02   -0.26212E-02    70   0.882E-01    0.194E-01
RMM:   4    -0.115922784937E+03   -0.75837E-03   -0.63287E-03    71   0.415E-01    0.657E-02
RMM:   5    -0.115923019305E+03   -0.23437E-03   -0.18373E-03    79   0.194E-01    0.330E-02
RMM:   6    -0.115923061121E+03   -0.41816E-04   -0.19245E-04    68   0.812E-02    0.898E-03
RMM:   7    -0.115923091029E+03   -0.29908E-04   -0.64433E-05    53   0.415E-02    0.927E-03
RMM:   8    -0.115923136977E+03   -0.45948E-04   -0.15178E-05    46   0.190E-02    0.568E-03
RMM:   9    -0.115923144881E+03   -0.79037E-05   -0.29881E-06    45   0.895E-03
  54 F= -.11616604E+03 E0= -.11616604E+03  d E =-.913503E-02
 BRION: g(F)=  0.706E-02 g(S)=  0.000E+00
 BRIONS problems: POTIM should be increased
 retain N=  1 mean eig=16.83
 eig:  16.829
 bond charge predicted
       N       E                     dE             d eps       ncg     rms          rms(c)
DAV:   1    -0.115910792886E+03    0.12344E-01   -0.47586E+00    70   0.112E+01    0.437E-01
RMM:   2    -0.115915937366E+03   -0.51445E-02   -0.73165E-02    70   0.134E+00    0.259E-01
RMM:   3    -0.115916927832E+03   -0.99047E-03   -0.10519E-02    70   0.560E-01    0.110E-01
RMM:   4    -0.115917304201E+03   -0.37637E-03   -0.25154E-03    71   0.262E-01    0.359E-02
RMM:   5    -0.115917396731E+03   -0.92530E-04   -0.74564E-04    79   0.123E-01    0.155E-02
RMM:   6    -0.115917409470E+03   -0.12738E-04   -0.74190E-05    54   0.503E-02    0.574E-03
RMM:   7    -0.115917421658E+03   -0.12188E-04   -0.24601E-05    49   0.253E-02    0.483E-03
RMM:   8    -0.115917434578E+03   -0.12920E-04   -0.52101E-06    45   0.115E-02    0.158E-03
RMM:   9    -0.115917439274E+03   -0.46966E-05   -0.14533E-06    40   0.621E-03
  55 F= -.11616045E+03 E0= -.11616045E+03  d E =0.559507E-02
 BRION: g(F)=  0.547E-02 g(S)=  0.000E+00
 BRIONS problems: POTIM should be increased
 retain N=  1 mean eig= 8.79
 eig:   8.786
 bond charge predicted
       N       E                     dE             d eps       ncg     rms          rms(c)
DAV:   1    -0.115918441485E+03   -0.10069E-02   -0.20918E-01    76   0.234E+00    0.887E-02
RMM:   2    -0.115918637616E+03   -0.19613E-03   -0.31626E-03    70   0.279E-01    0.543E-02
RMM:   3    -0.115918707082E+03   -0.69467E-04   -0.45374E-04    70   0.117E-01    0.207E-02
RMM:   4    -0.115918729124E+03   -0.22041E-04   -0.11173E-04    62   0.542E-02    0.658E-03
RMM:   5    -0.115918732913E+03   -0.37896E-05   -0.22918E-05    50   0.237E-02
  56 F= -.11616172E+03 E0= -.11616172E+03  d E =-.127363E-02
 BRION: g(F)=  0.520E-02 g(S)=  0.000E+00
 BRIONS problems: POTIM should be increased
 retain N=  1 mean eig= 8.60
 eig:   8.603
 bond charge predicted
       N       E                     dE             d eps       ncg     rms          rms(c)
DAV:   1    -0.115919224714E+03   -0.49559E-03   -0.41221E-02    76   0.104E+00    0.395E-02
RMM:   2    -0.115919260423E+03   -0.35709E-04   -0.64512E-04    70   0.127E-01    0.241E-02
RMM:   3    -0.115919275937E+03   -0.15514E-04   -0.97185E-05    59   0.537E-02    0.949E-03
RMM:   4    -0.115919279667E+03   -0.37302E-05   -0.23218E-05    52   0.248E-02
  57 F= -.11616226E+03 E0= -.11616226E+03  d E =-.536032E-03
 BRION: g(F)=  0.521E-02 g(S)=  0.000E+00 retain N=  1 mean eig= 1.38
 eig:   1.384
 bond charge predicted
       N       E                     dE             d eps       ncg     rms          rms(c)
DAV:   1    -0.115919142760E+03    0.13318E-03   -0.24962E-03    76   0.258E-01    0.103E-02
RMM:   2    -0.115919145290E+03   -0.25306E-05   -0.36432E-05    50   0.302E-02
  58 F= -.11616213E+03 E0= -.11616213E+03  d E =0.130210E-03
 BRION: g(F)=  0.522E-02 g(S)=  0.000E+00 retain N=  1 mean eig= 0.73
 eig:   0.731
 bond charge predicted
       N       E                     dE             d eps       ncg     rms          rms(c)
DAV:   1    -0.115919351304E+03   -0.20854E-03   -0.67410E-03    76   0.417E-01    0.142E-02
RMM:   2    -0.115919358405E+03   -0.71015E-05   -0.97209E-05    59   0.492E-02
  59 F= -.11616234E+03 E0= -.11616234E+03  d E =-.210386E-03
 BRION: g(F)=  0.505E-02 g(S)=  0.000E+00
 BRIONS problems: POTIM should be increased
 retain N=  1 mean eig=11.15
 eig:  11.150
 bond charge predicted
       N       E                     dE             d eps       ncg     rms          rms(c)
DAV:   1    -0.115920386560E+03   -0.10353E-02   -0.28927E-01    70   0.277E+00    0.108E-01
RMM:   2    -0.115920642195E+03   -0.25563E-03   -0.44503E-03    70   0.333E-01    0.667E-02
RMM:   3    -0.115920732535E+03   -0.90340E-04   -0.65077E-04    70   0.140E-01    0.249E-02
RMM:   4    -0.115920759692E+03   -0.27157E-04   -0.16194E-04    66   0.651E-02    0.826E-03
RMM:   5    -0.115920764222E+03   -0.45298E-05   -0.34847E-05    52   0.286E-02
  60 F= -.11616372E+03 E0= -.11616372E+03  d E =-.137641E-02
 BRION: g(F)=  0.499E-02 g(S)=  0.000E+00 retain N=  1 mean eig= 4.79
 eig:   4.791
 bond charge predicted
       N       E                     dE             d eps       ncg     rms          rms(c)
DAV:   1    -0.115920245351E+03    0.51434E-03   -0.33769E-02    70   0.949E-01    0.382E-02
RMM:   2    -0.115920274183E+03   -0.28831E-04   -0.51335E-04    70   0.113E-01    0.232E-02
RMM:   3    -0.115920287072E+03   -0.12889E-04   -0.71926E-05    58   0.464E-02    0.101E-02
RMM:   4    -0.115920292631E+03   -0.55594E-05   -0.17137E-05    50   0.215E-02
  61 F= -.11616326E+03 E0= -.11616326E+03  d E =0.455609E-03
 BRION: g(F)=  0.504E-02 g(S)=  0.000E+00 retain N=  1 mean eig= 0.95
 eig:   0.952
 bond charge predicted
       N       E                     dE             d eps       ncg     rms          rms(c)
DAV:   1    -0.115920657277E+03   -0.37021E-03   -0.22588E-02    76   0.771E-01    0.291E-02
RMM:   2    -0.115920676240E+03   -0.18962E-04   -0.33456E-04    69   0.915E-02    0.175E-02
RMM:   3    -0.115920684654E+03   -0.84143E-05   -0.48090E-05    54   0.380E-02
  62 F= -.11616364E+03 E0= -.11616364E+03  d E =-.384020E-03
 BRION: g(F)=  0.475E-02 g(S)=  0.000E+00 retain N=  1 mean eig= 5.27
 eig:   5.265
 bond charge predicted
       N       E                     dE             d eps       ncg     rms          rms(c)
DAV:   1    -0.115921424147E+03   -0.74791E-03   -0.13697E-01    70   0.190E+00    0.726E-02
RMM:   2    -0.115921550362E+03   -0.12622E-03   -0.21190E-03    70   0.230E-01    0.448E-02
RMM:   3    -0.115921595856E+03   -0.45493E-04   -0.31547E-04    70   0.973E-02    0.169E-02
RMM:   4    -0.115921608750E+03   -0.12894E-04   -0.79806E-05    60   0.455E-02    0.549E-03
RMM:   5    -0.115921610966E+03   -0.22163E-05   -0.16797E-05    49   0.200E-02
  63 F= -.11616456E+03 E0= -.11616456E+03  d E =-.911897E-03
 BRION: g(F)=  0.468E-02 g(S)=  0.000E+00 retain N=  1 mean eig= 7.40
 eig:   7.397
 bond charge predicted
       N       E                     dE             d eps       ncg     rms          rms(c)
DAV:   1    -0.115921522204E+03    0.86545E-04   -0.21333E-03    73   0.245E-01    0.153E-02
RMM:   2    -0.115921523203E+03   -0.99845E-06   -0.44737E-05    54   0.331E-02
  64 F= -.11616446E+03 E0= -.11616446E+03  d E =0.922637E-04
 BRION: g(F)=  0.478E-02 g(S)=  0.000E+00 retain N=  1 mean eig= 0.47
 eig:   0.473
 bond charge predicted
       N       E                     dE             d eps       ncg     rms          rms(c)
DAV:   1    -0.115921698717E+03   -0.17651E-03   -0.56542E-03    73   0.386E-01    0.136E-02
RMM:   2    -0.115921705650E+03   -0.69321E-05   -0.88233E-05    59   0.469E-02
  65 F= -.11616465E+03 E0= -.11616465E+03  d E =-.182734E-03
 BRION: g(F)=  0.443E-02 g(S)=  0.000E+00 retain N=  1 mean eig= 0.92
 eig:   0.920
 bond charge predicted
       N       E                     dE             d eps       ncg     rms          rms(c)
DAV:   1    -0.115921894947E+03   -0.19623E-03   -0.66633E-03    70   0.423E-01    0.191E-02
RMM:   2    -0.115921899289E+03   -0.43417E-05   -0.11352E-04    59   0.530E-02    0.120E-02
RMM:   3    -0.115921902848E+03   -0.35590E-05   -0.17596E-05    50   0.227E-02
  66 F= -.11616484E+03 E0= -.11616484E+03  d E =-.192595E-03
 BRION: g(F)=  0.445E-02 g(S)=  0.000E+00 retain N=  2 mean eig= 1.84
 eig:   1.843  1.843
 bond charge predicted
       N       E                     dE             d eps       ncg     rms          rms(c)
DAV:   1    -0.115922856181E+03   -0.95689E-03   -0.45914E-01    70   0.348E+00    0.132E-01
RMM:   2    -0.115923295199E+03   -0.43902E-03   -0.70605E-03    70   0.420E-01    0.808E-02
RMM:   3    -0.115923433096E+03   -0.13790E-03   -0.10278E-03    70   0.176E-01    0.314E-02
RMM:   4    -0.115923473177E+03   -0.40081E-04   -0.24433E-04    71   0.821E-02    0.991E-03
RMM:   5    -0.115923481880E+03   -0.87024E-05   -0.70027E-05    59   0.384E-02
  67 F= -.11616640E+03 E0= -.11616640E+03  d E =-.155665E-02
 BRION: g(F)=  0.437E-02 g(S)=  0.000E+00 retain N=  1 mean eig= 6.52
 eig:   6.522
 bond charge predicted
       N       E                     dE             d eps       ncg     rms          rms(c)
DAV:   1    -0.115922871877E+03    0.60130E-03   -0.54670E-02    70   0.120E+00    0.456E-02
RMM:   2    -0.115922921841E+03   -0.49964E-04   -0.81161E-04    70   0.142E-01    0.279E-02
RMM:   3    -0.115922944370E+03   -0.22529E-04   -0.11342E-04    60   0.583E-02    0.108E-02
RMM:   4    -0.115922952018E+03   -0.76486E-05   -0.25223E-05    52   0.258E-02
  68 F= -.11616587E+03 E0= -.11616587E+03  d E =0.523569E-03
 BRION: g(F)=  0.445E-02 g(S)=  0.000E+00 retain N=  1 mean eig= 0.88
 eig:   0.883
 bond charge predicted
       N       E                     dE             d eps       ncg     rms          rms(c)
DAV:   1    -0.115923320951E+03   -0.37658E-03   -0.30895E-02    70   0.901E-01    0.339E-02
RMM:   2    -0.115923347947E+03   -0.26997E-04   -0.45977E-04    70   0.107E-01    0.205E-02
RMM:   3    -0.115923359292E+03   -0.11345E-04   -0.65150E-05    58   0.445E-02    0.789E-03
RMM:   4    -0.115923362352E+03   -0.30599E-05   -0.13940E-05    48   0.199E-02
  69 F= -.11616628E+03 E0= -.11616628E+03  d E =-.403037E-03
 BRION: g(F)=  0.405E-02 g(S)=  0.000E+00 retain N=  2 mean eig= 4.15
 eig:   1.036  7.264
 bond charge predicted
       N       E                     dE             d eps       ncg     rms          rms(c)
DAV:   1    -0.115923786439E+03   -0.42715E-03   -0.47694E-02    70   0.112E+00    0.430E-02
RMM:   2    -0.115923829455E+03   -0.43017E-04   -0.74522E-04    70   0.136E-01    0.264E-02
RMM:   3    -0.115923845363E+03   -0.15907E-04   -0.10878E-04    59   0.571E-02    0.106E-02
RMM:   4    -0.115923849667E+03   -0.43046E-05   -0.25312E-05    52   0.257E-02
  70 F= -.11616676E+03 E0= -.11616676E+03  d E =-.482796E-03
 BRION: g(F)=  0.410E-02 g(S)=  0.000E+00 retain N=  2 mean eig= 2.62
 eig:   2.622  2.622
 bond charge predicted
       N       E                     dE             d eps       ncg     rms          rms(c)
DAV:   1    -0.115924265561E+03   -0.42020E-03   -0.42736E-02    70   0.106E+00    0.409E-02
RMM:   2    -0.115924302420E+03   -0.36859E-04   -0.67474E-04    70   0.130E-01    0.252E-02
RMM:   3    -0.115924316902E+03   -0.14482E-04   -0.10031E-04    59   0.546E-02    0.105E-02
RMM:   4    -0.115924321262E+03   -0.43599E-05   -0.23945E-05    52   0.249E-02
  71 F= -.11616722E+03 E0= -.11616722E+03  d E =-.457998E-03
 BRION: g(F)=  0.394E-02 g(S)=  0.000E+00 retain N=  2 mean eig= 4.12
 eig:   4.121  4.121
 bond charge predicted
       N       E                     dE             d eps       ncg     rms          rms(c)
DAV:   1    -0.115924925281E+03   -0.60838E-03   -0.12112E-01    70   0.179E+00    0.679E-02
RMM:   2    -0.115925033030E+03   -0.10775E-03   -0.18730E-03    70   0.216E-01    0.417E-02
RMM:   3    -0.115925075926E+03   -0.42896E-04   -0.27366E-04    70   0.908E-02    0.162E-02
RMM:   4    -0.115925087089E+03   -0.11162E-04   -0.65642E-05    58   0.421E-02    0.521E-03
RMM:   5    -0.115925089808E+03   -0.27192E-05   -0.16343E-05    49   0.186E-02
  72 F= -.11616797E+03 E0= -.11616797E+03  d E =-.756987E-03
 BRION: g(F)=  0.402E-02 g(S)=  0.000E+00 retain N=  2 mean eig= 1.63
 eig:   1.634  1.634
 bond charge predicted
       N       E                     dE             d eps       ncg     rms          rms(c)
DAV:   1    -0.115924780845E+03    0.30624E-03   -0.16826E-02    70   0.666E-01    0.251E-02
RMM:   2    -0.115924796543E+03   -0.15699E-04   -0.24825E-04    68   0.785E-02    0.154E-02
RMM:   3    -0.115924804495E+03   -0.79517E-05   -0.34286E-05    52   0.322E-02
  73 F= -.11616769E+03 E0= -.11616769E+03  d E =0.279467E-03
 BRION: g(F)=  0.383E-02 g(S)=  0.000E+00 retain N=  2 mean eig= 1.42
 eig:   1.182  1.662
 bond charge predicted
       N       E                     dE             d eps       ncg     rms          rms(c)
DAV:   1    -0.115924870776E+03   -0.74233E-04   -0.86108E-04    73   0.150E-01    0.594E-03
RMM:   2    -0.115924871911E+03   -0.11351E-05   -0.11394E-05    46   0.165E-02
  74 F= -.11616776E+03 E0= -.11616776E+03  d E =-.651555E-04
 BRION: g(F)=  0.371E-02 g(S)=  0.000E+00 retain N=  3 mean eig= 3.69
 eig:   0.616  5.224  5.224
 bond charge predicted
       N       E                     dE             d eps       ncg     rms          rms(c)
DAV:   1    -0.115923527523E+03    0.13433E-02   -0.39013E+00    70   0.102E+01    0.398E-01
RMM:   2    -0.115927743379E+03   -0.42159E-02   -0.60494E-02    70   0.123E+00    0.236E-01
RMM:   3    -0.115928542078E+03   -0.79870E-03   -0.87316E-03    70   0.513E-01    0.102E-01
RMM:   4    -0.115928830237E+03   -0.28816E-03   -0.20740E-03    71   0.239E-01    0.345E-02
RMM:   5    -0.115928905239E+03   -0.75002E-04   -0.58186E-04    79   0.111E-01    0.156E-02
RMM:   6    -0.115928916662E+03   -0.11423E-04   -0.61058E-05    53   0.460E-02    0.498E-03
RMM:   7    -0.115928926901E+03   -0.10239E-04   -0.19430E-05    48   0.231E-02    0.442E-03
RMM:   8    -0.115928943371E+03   -0.16470E-04   -0.55203E-06    45   0.119E-02    0.291E-03
RMM:   9    -0.115928945466E+03   -0.20946E-05   -0.12745E-06    39   0.634E-03
  75 F= -.11617174E+03 E0= -.11617174E+03  d E =-.398598E-02
 BRION: g(F)=  0.340E-02 g(S)=  0.000E+00
 BRIONS problems: POTIM should be increased
 retain N=  1 mean eig=24.62
 eig:  24.623
 bond charge predicted
       N       E                     dE             d eps       ncg     rms          rms(c)
DAV:   1    -0.115927303098E+03    0.16403E-02   -0.35091E-01    70   0.304E+00    0.115E-01
RMM:   2    -0.115927632954E+03   -0.32986E-03   -0.53404E-03    70   0.365E-01    0.704E-02
RMM:   3    -0.115927747594E+03   -0.11464E-03   -0.77066E-04    70   0.153E-01    0.269E-02
RMM:   4    -0.115927785222E+03   -0.37628E-04   -0.18131E-04    65   0.708E-02    0.858E-03
RMM:   5    -0.115927792278E+03   -0.70568E-05   -0.48069E-05    54   0.323E-02
  76 F= -.11617062E+03 E0= -.11617062E+03  d E =0.112506E-02
 BRION: g(F)=  0.358E-02 g(S)=  0.000E+00 retain N=  1 mean eig= 1.77
 eig:   1.771
 bond charge predicted
       N       E                     dE             d eps       ncg     rms          rms(c)
DAV:   1    -0.115928347772E+03   -0.56255E-03   -0.13587E-01    76   0.189E+00    0.720E-02
RMM:   2    -0.115928466354E+03   -0.11858E-03   -0.20380E-03    70   0.225E-01    0.438E-02
RMM:   3    -0.115928517786E+03   -0.51432E-04   -0.28749E-04    70   0.933E-02    0.169E-02
RMM:   4    -0.115928532142E+03   -0.14356E-04   -0.66372E-05    58   0.427E-02    0.550E-03
RMM:   5    -0.115928534123E+03   -0.19801E-05   -0.15909E-05    49   0.185E-02
  77 F= -.11617134E+03 E0= -.11617134E+03  d E =-.724762E-03
 BRION: g(F)=  0.292E-02 g(S)=  0.000E+00 retain N=  1 mean eig= 4.94
 eig:   4.940
 bond charge predicted
       N       E                     dE             d eps       ncg     rms          rms(c)
DAV:   1    -0.115929010975E+03   -0.47883E-03   -0.98551E-02    70   0.162E+00    0.614E-02
RMM:   2    -0.115929095809E+03   -0.84834E-04   -0.15237E-03    70   0.196E-01    0.373E-02
RMM:   3    -0.115929132239E+03   -0.36430E-04   -0.22480E-04    69   0.825E-02    0.145E-02
RMM:   4    -0.115929141922E+03   -0.96830E-05   -0.53907E-05    58   0.385E-02
  78 F= -.11617194E+03 E0= -.11617194E+03  d E =-.593887E-03
 BRION: g(F)=  0.290E-02 g(S)=  0.000E+00
 BRIONS problems: POTIM should be increased
 retain N=  1 mean eig=10.93
 eig:  10.930
 bond charge predicted
       N       E                     dE             d eps       ncg     rms          rms(c)
DAV:   1    -0.115929091471E+03    0.40768E-04   -0.76481E-04    89   0.142E-01    0.563E-03
RMM:   2    -0.115929092376E+03   -0.90565E-06   -0.10072E-05    45   0.160E-02
  79 F= -.11617189E+03 E0= -.11617189E+03  d E =0.495124E-04
 BRION: g(F)=  0.296E-02 g(S)=  0.000E+00 retain N=  1 mean eig= 0.45
 eig:   0.453
 bond charge predicted
       N       E                     dE             d eps       ncg     rms          rms(c)
DAV:   1    -0.115929201019E+03   -0.10955E-03   -0.34889E-03    73   0.303E-01    0.105E-02
RMM:   2    -0.115929204714E+03   -0.36946E-05   -0.52163E-05    52   0.364E-02
  80 F= -.11617200E+03 E0= -.11617200E+03  d E =-.110170E-03
 BRION: g(F)=  0.276E-02 g(S)=  0.000E+00 retain N=  1 mean eig= 0.95
 eig:   0.953
 bond charge predicted
       N       E                     dE             d eps       ncg     rms          rms(c)
DAV:   1    -0.115929334706E+03   -0.13369E-03   -0.48323E-03    70   0.363E-01    0.159E-02
RMM:   2    -0.115929337619E+03   -0.29130E-05   -0.80391E-05    57   0.449E-02
  81 F= -.11617213E+03 E0= -.11617213E+03  d E =-.129194E-03
 BRION: g(F)=  0.278E-02 g(S)=  0.000E+00 retain N=  2 mean eig= 2.03
 eig:   0.533  3.532
 bond charge predicted
       N       E                     dE             d eps       ncg     rms          rms(c)
DAV:   1    -0.115929951415E+03   -0.61671E-03   -0.25755E-01    70   0.263E+00    0.102E-01
RMM:   2    -0.115930182697E+03   -0.23128E-03   -0.39639E-03    70   0.317E-01    0.625E-02
RMM:   3    -0.115930263363E+03   -0.80666E-04   -0.58215E-04    70   0.134E-01    0.237E-02
RMM:   4    -0.115930289153E+03   -0.25790E-04   -0.13799E-04    64   0.619E-02    0.802E-03
RMM:   5    -0.115930293876E+03   -0.47233E-05   -0.34616E-05    52   0.283E-02
  82 F= -.11617306E+03 E0= -.11617306E+03  d E =-.931961E-03
 BRION: g(F)=  0.271E-02 g(S)=  0.000E+00 retain N=  1 mean eig= 6.55
 eig:   6.546
 bond charge predicted
       N       E                     dE             d eps       ncg     rms          rms(c)
DAV:   1    -0.115929987522E+03    0.30163E-03   -0.22144E-02    70   0.770E-01    0.293E-02
RMM:   2    -0.115930005659E+03   -0.18136E-04   -0.32079E-04    70   0.899E-02    0.179E-02
RMM:   3    -0.115930017463E+03   -0.11804E-04   -0.44217E-05    53   0.368E-02    0.667E-03
RMM:   4    -0.115930021314E+03   -0.38511E-05   -0.88413E-06    44   0.156E-02
  83 F= -.11617279E+03 E0= -.11617279E+03  d E =0.265626E-03
 BRION: g(F)=  0.281E-02 g(S)=  0.000E+00 retain N=  1 mean eig= 0.88
 eig:   0.877
 bond charge predicted
       N       E                     dE             d eps       ncg     rms          rms(c)
DAV:   1    -0.115930239420E+03   -0.22196E-03   -0.16334E-02    70   0.661E-01    0.251E-02
RMM:   2    -0.115930252467E+03   -0.13047E-04   -0.24458E-04    68   0.790E-02    0.152E-02
RMM:   3    -0.115930259707E+03   -0.72394E-05   -0.35285E-05    52   0.328E-02
  84 F= -.11617303E+03 E0= -.11617303E+03  d E =-.232075E-03
 BRION: g(F)=  0.256E-02 g(S)=  0.000E+00 retain N=  1 mean eig= 3.17
 eig:   3.174
 bond charge predicted
       N       E                     dE             d eps       ncg     rms          rms(c)
DAV:   1    -0.115930563016E+03   -0.31055E-03   -0.37157E-02    70   0.100E+00    0.384E-02
RMM:   2    -0.115930593934E+03   -0.30918E-04   -0.58471E-04    70   0.122E-01    0.237E-02
RMM:   3    -0.115930609889E+03   -0.15955E-04   -0.89098E-05    59   0.520E-02    0.914E-03
RMM:   4    -0.115930613710E+03   -0.38213E-05   -0.20819E-05    51   0.236E-02
  85 F= -.11617337E+03 E0= -.11617337E+03  d E =-.345098E-03
 BRION: g(F)=  0.256E-02 g(S)=  0.000E+00 retain N=  2 mean eig= 3.81
 eig:   3.811  3.811
 bond charge predicted
       N       E                     dE             d eps       ncg     rms          rms(c)
DAV:   1    -0.115931067134E+03   -0.45724E-03   -0.11160E-01    70   0.173E+00    0.659E-02
RMM:   2    -0.115931165125E+03   -0.97991E-04   -0.17202E-03    70   0.209E-01    0.401E-02
RMM:   3    -0.115931203524E+03   -0.38399E-04   -0.25251E-04    70   0.878E-02    0.157E-02
RMM:   4    -0.115931214799E+03   -0.11275E-04   -0.60304E-05    58   0.406E-02    0.531E-03
RMM:   5    -0.115931217052E+03   -0.22533E-05   -0.14627E-05    49   0.179E-02
  86 F= -.11617396E+03 E0= -.11617396E+03  d E =-.585325E-03
 BRION: g(F)=  0.248E-02 g(S)=  0.000E+00 retain N=  1 mean eig= 3.02
 eig:   3.019
 bond charge predicted
       N       E                     dE             d eps       ncg     rms          rms(c)
DAV:   1    -0.115931090763E+03    0.12404E-03   -0.44145E-03    70   0.345E-01    0.131E-02
RMM:   2    -0.115931094835E+03   -0.40720E-05   -0.63443E-05    54   0.400E-02
  87 F= -.11617384E+03 E0= -.11617384E+03  d E =0.117745E-03
 BRION: g(F)=  0.257E-02 g(S)=  0.000E+00 retain N=  2 mean eig= 2.00
 eig:   3.604  0.393
 bond charge predicted
       N       E                     dE             d eps       ncg     rms          rms(c)
DAV:   1    -0.115931309118E+03   -0.21835E-03   -0.17557E-02    70   0.682E-01    0.241E-02
RMM:   2    -0.115931325556E+03   -0.16438E-04   -0.25427E-04    68   0.807E-02    0.141E-02
RMM:   3    -0.115931331750E+03   -0.61940E-05   -0.36289E-05    52   0.331E-02
  88 F= -.11617407E+03 E0= -.11617407E+03  d E =-.230428E-03
 BRION: g(F)=  0.235E-02 g(S)=  0.000E+00 retain N=  2 mean eig= 1.40
 eig:   0.450  2.342
 bond charge predicted
       N       E                     dE             d eps       ncg     rms          rms(c)
DAV:   1    -0.115931415064E+03   -0.89509E-04   -0.22693E-03    73   0.248E-01    0.101E-02
RMM:   2    -0.115931417083E+03   -0.20184E-05   -0.39482E-05    52   0.319E-02
  89 F= -.11617415E+03 E0= -.11617415E+03  d E =-.822224E-04
 BRION: g(F)=  0.235E-02 g(S)=  0.000E+00 retain N=  2 mean eig= 1.14
 eig:   1.143  1.143
 bond charge predicted
       N       E                     dE             d eps       ncg     rms          rms(c)
DAV:   1    -0.115931675450E+03   -0.26039E-03   -0.28067E-02    70   0.872E-01    0.346E-02
RMM:   2    -0.115931697283E+03   -0.21832E-04   -0.44184E-04    70   0.106E-01    0.214E-02
RMM:   3    -0.115931709168E+03   -0.11886E-04   -0.65570E-05    59   0.448E-02    0.795E-03
RMM:   4    -0.115931712223E+03   -0.30547E-05   -0.14948E-05    49   0.199E-02
  90 F= -.11617444E+03 E0= -.11617444E+03  d E =-.287137E-03
 BRION: g(F)=  0.231E-02 g(S)=  0.000E+00 retain N=  2 mean eig= 1.62
 eig:   1.621  1.621
 bond charge predicted
       N       E                     dE             d eps       ncg     rms          rms(c)
DAV:   1    -0.115931675590E+03    0.33578E-04   -0.45456E-04    76   0.111E-01    0.450E-03
RMM:   2    -0.115931676281E+03   -0.69101E-06   -0.62872E-06    42   0.128E-02
  91 F= -.11617440E+03 E0= -.11617440E+03  d E =0.355856E-04
 BRION: g(F)=  0.236E-02 g(S)=  0.000E+00 retain N=  3 mean eig= 2.15
 eig:   2.381  2.029  2.029
 bond charge predicted
       N       E                     dE             d eps       ncg     rms          rms(c)
DAV:   1    -0.115922985493E+03    0.86901E-02   -0.94909E+00    70   0.160E+01    0.661E-01
RMM:   2    -0.115933858512E+03   -0.10873E-01   -0.15026E-01    70   0.196E+00    0.370E-01
RMM:   3    -0.115935671105E+03   -0.18126E-02   -0.22629E-02    71   0.816E-01    0.181E-01
RMM:   4    -0.115936219416E+03   -0.54831E-03   -0.44999E-03    70   0.368E-01    0.630E-02
RMM:   5    -0.115936405034E+03   -0.18562E-03   -0.13955E-03    80   0.176E-01    0.291E-02
RMM:   6    -0.115936437308E+03   -0.32273E-04   -0.15245E-04    67   0.741E-02    0.748E-03
RMM:   7    -0.115936457831E+03   -0.20523E-04   -0.52867E-05    51   0.382E-02    0.103E-02
RMM:   8    -0.115936480663E+03   -0.22832E-04   -0.10526E-05    46   0.165E-02    0.248E-03
RMM:   9    -0.115936499516E+03   -0.18854E-04   -0.33476E-06    45   0.871E-03    0.108E-03
RMM:  10    -0.115936521623E+03   -0.22107E-04   -0.23089E-06    39   0.602E-03    0.254E-03
RMM:  11    -0.115936533517E+03   -0.11894E-04   -0.12327E-06    35   0.436E-03    0.134E-03
RMM:  12    -0.115936545442E+03   -0.11925E-04   -0.12044E-06    31   0.390E-03    0.818E-04
RMM:  13    -0.115936550405E+03   -0.49631E-05   -0.52761E-07    27   0.332E-03
  92 F= -.11617911E+03 E0= -.11617911E+03  d E =-.470609E-02
 BRION: g(F)=  0.125E+01 g(S)=  0.000E+00 retain N=  3 mean eig= 1.25
 eig:   1.874  1.874  0.011
 bond charge predicted
       N       E                     dE             d eps       ncg     rms          rms(c)
DAV:   1    -0.115919751168E+03    0.16794E-01   -0.87920E+00    70   0.154E+01    0.596E-01
RMM:   2    -0.115929400134E+03   -0.96490E-02   -0.13585E-01    70   0.186E+00    0.355E-01
RMM:   3    -0.115931002076E+03   -0.16019E-02   -0.19547E-02    70   0.776E-01    0.151E-01
RMM:   4    -0.115931594709E+03   -0.59263E-03   -0.46477E-03    71   0.362E-01    0.486E-02
RMM:   5    -0.115931757241E+03   -0.16253E-03   -0.12713E-03    79   0.167E-01    0.224E-02
RMM:   6    -0.115931784839E+03   -0.27598E-04   -0.13948E-04    65   0.698E-02    0.662E-03
RMM:   7    -0.115931804116E+03   -0.19278E-04   -0.45655E-05    51   0.357E-02    0.699E-03
RMM:   8    -0.115931825444E+03   -0.21327E-04   -0.93423E-06    46   0.155E-02    0.157E-03
RMM:   9    -0.115931838630E+03   -0.13186E-04   -0.25015E-06    44   0.768E-03    0.917E-04
RMM:  10    -0.115931863213E+03   -0.24583E-04   -0.30208E-06    39   0.620E-03    0.167E-03
RMM:  11    -0.115931870674E+03   -0.74611E-05   -0.11476E-06    33   0.411E-03
  93 F= -.11617459E+03 E0= -.11617459E+03  d E =0.451753E-02
 BRION: g(F)=  0.224E-02 g(S)=  0.000E+00 retain N=  1 mean eig= 1.22
 eig:   1.220
 bond charge predicted
       N       E                     dE             d eps       ncg     rms          rms(c)
DAV:   1    -0.115932010943E+03   -0.14773E-03   -0.67167E-03    81   0.424E-01    0.162E-02
RMM:   2    -0.115932017239E+03   -0.62961E-05   -0.10121E-04    59   0.505E-02    0.976E-03
RMM:   3    -0.115932021243E+03   -0.40036E-05   -0.14815E-05    48   0.209E-02
  94 F= -.11617474E+03 E0= -.11617474E+03  d E =-.146955E-03
 BRION: g(F)=  0.217E-02 g(S)=  0.000E+00 retain N=  2 mean eig= 1.70
 eig:   1.699  1.699
 bond charge predicted
       N       E                     dE             d eps       ncg     rms          rms(c)
DAV:   1    -0.115932154464E+03   -0.13722E-03   -0.67782E-03    76   0.428E-01    0.166E-02
RMM:   2    -0.115932160476E+03   -0.60122E-05   -0.10874E-04    59   0.528E-02    0.103E-02
RMM:   3    -0.115932164212E+03   -0.37358E-05   -0.17059E-05    49   0.222E-02
  95 F= -.11617488E+03 E0= -.11617488E+03  d E =-.138115E-03
 BRION: g(F)=  0.216E-02 g(S)=  0.000E+00 retain N=  3 mean eig= 4.93
 eig:   6.908  6.908  0.962
 bond charge predicted
       N       E                     dE             d eps       ncg     rms          rms(c)
DAV:   1    -0.115931180276E+03    0.98020E-03   -0.25880E+00    70   0.835E+00    0.328E-01
RMM:   2    -0.115933906425E+03   -0.27261E-02   -0.40064E-02    70   0.101E+00    0.193E-01
RMM:   3    -0.115934470213E+03   -0.56379E-03   -0.58379E-03    70   0.423E-01    0.832E-02
RMM:   4    -0.115934677312E+03   -0.20710E-03   -0.13808E-03    71   0.197E-01    0.289E-02
RMM:   5    -0.115934725521E+03   -0.48209E-04   -0.38103E-04    78   0.918E-02    0.124E-02
RMM:   6    -0.115934733074E+03   -0.75525E-05   -0.41693E-05    51   0.383E-02
  96 F= -.11617736E+03 E0= -.11617736E+03  d E =-.248364E-02
 BRION: g(F)=  0.178E-02 g(S)=  0.000E+00
 BRIONS problems: POTIM should be increased
 retain N=  1 mean eig=32.38
 eig:  32.378
 bond charge predicted
       N       E                     dE             d eps       ncg     rms          rms(c)
DAV:   1    -0.115934462980E+03    0.26254E-03   -0.24990E-02    76   0.817E-01    0.319E-02
RMM:   2    -0.115934489837E+03   -0.26857E-04   -0.36915E-04    70   0.969E-02    0.192E-02
RMM:   3    -0.115934506907E+03   -0.17070E-04   -0.52631E-05    55   0.400E-02    0.705E-03
RMM:   4    -0.115934514584E+03   -0.76766E-05   -0.11356E-05    46   0.178E-02
  97 F= -.11617715E+03 E0= -.11617715E+03  d E =0.208928E-03
 BRION: g(F)=  0.182E-02 g(S)=  0.000E+00 retain N=  1 mean eig= 3.05
 eig:   3.046
 bond charge predicted
       N       E                     dE             d eps       ncg     rms          rms(c)
DAV:   1    -0.115934712175E+03   -0.20527E-03   -0.19998E-02    76   0.733E-01    0.280E-02
RMM:   2    -0.115934730410E+03   -0.18236E-04   -0.29839E-04    69   0.874E-02    0.167E-02
RMM:   3    -0.115934738966E+03   -0.85555E-05   -0.43130E-05    54   0.364E-02
  98 F= -.11617737E+03 E0= -.11617737E+03  d E =-.216259E-03
 BRION: g(F)=  0.170E-02 g(S)=  0.000E+00
 BRIONS problems: POTIM should be increased
 retain N=  1 mean eig= 8.55
 eig:   8.550
 bond charge predicted
       N       E                     dE             d eps       ncg     rms          rms(c)
DAV:   1    -0.115935040611E+03   -0.31020E-03   -0.65212E-02    70   0.133E+00    0.511E-02
RMM:   2    -0.115935099984E+03   -0.59372E-04   -0.10200E-03    70   0.162E-01    0.313E-02
RMM:   3    -0.115935123643E+03   -0.23660E-04   -0.15423E-04    66   0.688E-02    0.122E-02
RMM:   4    -0.115935130324E+03   -0.66809E-05   -0.36744E-05    53   0.319E-02
  99 F= -.11617775E+03 E0= -.11617775E+03  d E =-.378051E-03
 BRION: g(F)=  0.171E-02 g(S)=  0.000E+00 retain N=  1 mean eig= 6.24
 eig:   6.245
 bond charge predicted
       N       E                     dE             d eps       ncg     rms          rms(c)
DAV:   1    -0.115934953943E+03    0.16970E-03   -0.11905E-02    70   0.567E-01    0.217E-02
RMM:   2    -0.115934965101E+03   -0.11158E-04   -0.17212E-04    67   0.668E-02    0.130E-02
RMM:   3    -0.115934970444E+03   -0.53430E-05   -0.24075E-05    50   0.274E-02
 100 F= -.11617759E+03 E0= -.11617759E+03  d E =0.155495E-03
 BRION: g(F)=  0.176E-02 g(S)=  0.000E+00 retain N=  1 mean eig= 1.45
 eig:   1.454
 bond charge predicted
       N       E                     dE             d eps       ncg     rms          rms(c)
DAV:   1    -0.115935119024E+03   -0.15392E-03   -0.11154E-02    73   0.548E-01    0.208E-02
RMM:   2    -0.115935128896E+03   -0.98727E-05   -0.16224E-04    67   0.641E-02    0.122E-02
RMM:   3    -0.115935132706E+03   -0.38095E-05   -0.22296E-05    50   0.261E-02
 101 F= -.11617775E+03 E0= -.11617775E+03  d E =-.156565E-03
 BRION: g(F)=  0.165E-02 g(S)=  0.000E+00
 BRIONS problems: POTIM should be increased
 retain N=  1 mean eig=14.34
 eig:  14.337
 bond charge predicted
       N       E                     dE             d eps       ncg     rms          rms(c)
DAV:   1    -0.115935543250E+03   -0.41435E-03   -0.26694E-01    70   0.270E+00    0.104E-01
RMM:   2    -0.115935789039E+03   -0.24579E-03   -0.40924E-03    70   0.325E-01    0.627E-02
RMM:   3    -0.115935872113E+03   -0.83074E-04   -0.60288E-04    70   0.137E-01    0.246E-02
RMM:   4    -0.115935894805E+03   -0.22691E-04   -0.14230E-04    64   0.634E-02    0.834E-03
RMM:   5    -0.115935899212E+03   -0.44071E-05   -0.35104E-05    52   0.290E-02
 102 F= -.11617848E+03 E0= -.11617848E+03  d E =-.737562E-03
 BRION: g(F)=  0.121E+01 g(S)=  0.000E+00 retain N=  1 mean eig= 0.12
 eig:   0.116
 bond charge predicted
       N       E                     dE             d eps       ncg     rms          rms(c)
DAV:   1    -0.115934885935E+03    0.10089E-02   -0.22782E-01    70   0.249E+00    0.943E-02
RMM:   2    -0.115935090552E+03   -0.20462E-03   -0.34013E-03    70   0.296E-01    0.574E-02
RMM:   3    -0.115935167258E+03   -0.76707E-04   -0.48574E-04    70   0.123E-01    0.216E-02
RMM:   4    -0.115935189243E+03   -0.21985E-04   -0.11149E-04    64   0.565E-02    0.711E-03
RMM:   5    -0.115935193300E+03   -0.40570E-05   -0.26277E-05    51   0.254E-02
 103 F= -.11617781E+03 E0= -.11617781E+03  d E =0.677953E-03
 BRION: g(F)=  0.174E-02 g(S)=  0.000E+00 retain N=  1 mean eig= 0.12
 eig:   0.116
 bond charge predicted
       N       E                     dE             d eps       ncg     rms          rms(c)
DAV:   1    -0.115935256102E+03   -0.66859E-04   -0.18270E-03    78   0.220E-01    0.879E-03
RMM:   2    -0.115935257626E+03   -0.15232E-05   -0.26025E-05    47   0.251E-02
 104 F= -.11617787E+03 E0= -.11617787E+03  d E =-.604613E-04
 BRION: g(F)=  0.167E-02 g(S)=  0.000E+00 retain N=  2 mean eig= 0.43
 eig:   0.123  0.737
 bond charge predicted
       N       E                     dE             d eps       ncg     rms          rms(c)
DAV:   1    -0.115935297978E+03   -0.41876E-04   -0.80939E-04    81   0.151E-01    0.786E-03
RMM:   2    -0.115935298709E+03   -0.73023E-06   -0.15020E-05    46   0.195E-02
 105 F= -.11617791E+03 E0= -.11617791E+03  d E =-.412421E-04
 BRION: g(F)=  0.120E+01 g(S)=  0.000E+00 retain N=  2 mean eig= 0.37
 eig:   0.742  0.004
 bond charge predicted
       N       E                     dE             d eps       ncg     rms          rms(c)
DAV:   1    -0.115935293690E+03    0.42888E-05   -0.18986E-05    73   0.231E-02    0.172E-03
RMM:   2    -0.115935293878E+03   -0.18814E-06   -0.48442E-07    29   0.464E-03
 106 F= -.11617790E+03 E0= -.11617790E+03  d E =0.461214E-05
 BRION: g(F)=  0.120E+01 g(S)=  0.000E+00 retain N=  3 mean eig= 1.08
 eig:   1.976  1.212  0.037
 bond charge predicted
       N       E                     dE             d eps       ncg     rms          rms(c)
DAV:   1    -0.115935396305E+03   -0.10262E-03   -0.46719E-03    70   0.366E-01    0.146E-02
RMM:   2    -0.115935399695E+03   -0.33901E-05   -0.67601E-05    59   0.433E-02
 107 F= -.11617800E+03 E0= -.11617800E+03  d E =-.991502E-04
 BRION: g(F)=  0.120E+01 g(S)=  0.000E+00 retain N=  4 mean eig= 1.68
 eig:   2.906  2.906  0.892  0.035
 bond charge predicted
       N       E                     dE             d eps       ncg     rms          rms(c)
DAV:   1    -0.115935479770E+03   -0.83465E-04   -0.28571E-03    76   0.292E-01    0.141E-02
RMM:   2    -0.115935481308E+03   -0.15380E-05   -0.45809E-05    53   0.358E-02
 108 F= -.11617808E+03 E0= -.11617808E+03  d E =-.783677E-04
 BRION: g(F)=  0.121E+01 g(S)=  0.000E+00 retain N=  5 mean eig= 3.55
 eig:   7.841  7.841  1.034  1.034  0.023
 bond charge predicted
       N       E                     dE             d eps       ncg     rms          rms(c)
DAV:   1    -0.115935723298E+03   -0.24353E-03   -0.36507E-02    70   0.103E+00    0.423E-02
RMM:   2    -0.115935748860E+03   -0.25563E-04   -0.52105E-04    70   0.122E-01    0.260E-02
RMM:   3    -0.115935760883E+03   -0.12022E-04   -0.83170E-05    63   0.523E-02    0.778E-03
RMM:   4    -0.115935763528E+03   -0.26454E-05   -0.19231E-05    48   0.234E-02
 109 F= -.11617835E+03 E0= -.11617835E+03  d E =-.266506E-03
 BRION: g(F)=  0.121E+01 g(S)=  0.000E+00
 BRIONS problems: POTIM should be increased
 retain N=  1 mean eig=13.81
 eig:  13.812
 bond charge predicted
       N       E                     dE             d eps       ncg     rms          rms(c)
DAV:   1    -0.115896596477E+03    0.39164E-01   -0.23336E+01    70   0.261E+01    0.112E+00
RMM:   2    -0.115920365746E+03   -0.23769E-01   -0.34628E-01    70   0.315E+00    0.627E-01
RMM:   3    -0.115923251931E+03   -0.28862E-02   -0.52094E-02    70   0.131E+00    0.298E-01
RMM:   4    -0.115924457308E+03   -0.12054E-02   -0.12175E-02    70   0.619E-01    0.110E-01
RMM:   5    -0.115924920336E+03   -0.46303E-03   -0.37935E-03    80   0.297E-01    0.562E-02
RMM:   6    -0.115925005766E+03   -0.85429E-04   -0.45425E-04    71   0.123E-01    0.167E-02
RMM:   7    -0.115925038724E+03   -0.32958E-04   -0.95633E-05    62   0.516E-02    0.158E-02
RMM:   8    -0.115925089065E+03   -0.50341E-04   -0.23099E-05    47   0.240E-02    0.130E-02
RMM:   9    -0.115925089336E+03   -0.27105E-06   -0.52824E-06    45   0.128E-02
 110 F= -.11616803E+03 E0= -.11616803E+03  d E =0.103216E-01
 BRION: g(F)=  0.575E-01 g(S)=  0.000E+00 retain N=  1 mean eig= 2.57
 eig:   2.574
 bond charge predicted
       N       E                     dE             d eps       ncg     rms          rms(c)
DAV:   1    -0.115926157819E+03   -0.10688E-02   -0.16669E-01    76   0.221E+00    0.118E-01
RMM:   2    -0.115926239384E+03   -0.81565E-04   -0.31917E-03    70   0.287E-01    0.684E-02
RMM:   3    -0.115926242322E+03   -0.29378E-05   -0.47229E-04    70   0.120E-01    0.381E-02
RMM:   4    -0.115926272041E+03   -0.29719E-04   -0.19992E-04    70   0.692E-02    0.141E-02
RMM:   5    -0.115926278268E+03   -0.62272E-05   -0.24635E-05    53   0.276E-02
 111 F= -.11616925E+03 E0= -.11616925E+03  d E =-.122499E-02
 BRION: g(F)=  0.747E-01 g(S)=  0.000E+00 retain N=  2 mean eig= 1.55
 eig:   2.665  0.445
 bond charge predicted
       N       E                     dE             d eps       ncg     rms          rms(c)
DAV:   1    -0.115926863680E+03   -0.59164E-03   -0.15475E-02    81   0.674E-01    0.594E-02
RMM:   2    -0.115926836395E+03    0.27284E-04   -0.40457E-04    70   0.102E-01    0.301E-02
RMM:   3    -0.115926828197E+03    0.81979E-05   -0.62724E-05    58   0.434E-02
 112 F= -.11616977E+03 E0= -.11616977E+03  d E =-.519936E-03
 BRION: g(F)=  0.804E-02 g(S)=  0.000E+00 retain N=  1 mean eig= 0.43
 eig:   0.432
 bond charge predicted
       N       E                     dE             d eps       ncg     rms          rms(c)
DAV:   1    -0.115927124954E+03   -0.28856E-03   -0.42800E-03    73   0.372E-01    0.219E-02
RMM:   2    -0.115927127804E+03   -0.28503E-05   -0.65480E-05    59   0.443E-02
 113 F= -.11617007E+03 E0= -.11617007E+03  d E =-.300615E-03
 BRION: g(F)=  0.663E-02 g(S)=  0.000E+00 retain N=  2 mean eig= 1.04
 eig:   0.469  1.602
 bond charge predicted
       N       E                     dE             d eps       ncg     rms          rms(c)
DAV:   1    -0.115927521286E+03   -0.39633E-03   -0.16914E-02    73   0.713E-01    0.391E-02
RMM:   2    -0.115927526728E+03   -0.54421E-05   -0.29592E-04    70   0.870E-02    0.224E-02
RMM:   3    -0.115927532754E+03   -0.60260E-05   -0.51107E-05    55   0.378E-02
 114 F= -.11617049E+03 E0= -.11617049E+03  d E =-.419128E-03
 BRION: g(F)=  0.619E-02 g(S)=  0.000E+00 retain N=  3 mean eig= 1.50
 eig:   0.457  2.016  2.016
 bond charge predicted
       N       E                     dE             d eps       ncg     rms          rms(c)
DAV:   1    -0.115928024743E+03   -0.49802E-03   -0.20859E-02    70   0.823E-01    0.422E-02
RMM:   2    -0.115928030432E+03   -0.56888E-05   -0.32590E-04    70   0.996E-02    0.234E-02
RMM:   3    -0.115928037283E+03   -0.68513E-05   -0.56087E-05    58   0.421E-02
 115 F= -.11617099E+03 E0= -.11617099E+03  d E =-.496526E-03
 BRION: g(F)=  0.412E-02 g(S)=  0.000E+00 retain N=  3 mean eig= 5.01
 eig:   6.873  6.873  1.292
 bond charge predicted
       N       E                     dE             d eps       ncg     rms          rms(c)
DAV:   1    -0.115928360065E+03   -0.32963E-03   -0.16526E-02    70   0.709E-01    0.320E-02
RMM:   2    -0.115928372045E+03   -0.11980E-04   -0.25528E-04    70   0.853E-02    0.186E-02
RMM:   3    -0.115928379252E+03   -0.72072E-05   -0.44195E-05    53   0.369E-02
 116 F= -.11617133E+03 E0= -.11617133E+03  d E =-.339702E-03
 BRION: g(F)=  0.372E-02 g(S)=  0.000E+00 retain N=  3 mean eig= 4.67
 eig:   6.112  6.112  1.789
 bond charge predicted
       N       E                     dE             d eps       ncg     rms          rms(c)
DAV:   1    -0.115928551171E+03   -0.17913E-03   -0.63948E-03    76   0.429E-01    0.180E-02
RMM:   2    -0.115928557169E+03   -0.59977E-05   -0.11063E-04    63   0.546E-02    0.115E-02
[...]
 BRION: g(F)=  0.799E-02 g(S)=  0.000E+00 retain N=  3 mean eig= 5.89
 eig:   1.904  7.878  7.878
 bond charge predicted
       N       E                     dE             d eps       ncg     rms          rms(c)
DAV:   1    -0.115937738666E+03   -0.74386E-04   -0.34362E-02    70   0.950E-01    0.371E-02
RMM:   2    -0.115937772278E+03   -0.33612E-04   -0.53683E-04    70   0.117E-01    0.216E-02
RMM:   3    -0.115937781517E+03   -0.92387E-05   -0.82362E-05    57   0.496E-02
 177 F= -.11618038E+03 E0= -.11618038E+03  d E =-.106290E-03
 BRION: g(F)=  0.782E-02 g(S)=  0.000E+00 retain N=  2 mean eig= 5.11
 eig:   5.105  5.105
 bond charge predicted
       N       E                     dE             d eps       ncg     rms          rms(c)
DAV:   1    -0.115937798973E+03   -0.26695E-04   -0.19051E-01    70   0.224E+00    0.888E-02
RMM:   2    -0.115937984459E+03   -0.18549E-03   -0.29656E-03    70   0.277E-01    0.517E-02
RMM:   3    -0.115938037847E+03   -0.53388E-04   -0.45862E-04    70   0.118E-01    0.237E-02
RMM:   4    -0.115938053746E+03   -0.15899E-04   -0.11181E-04    62   0.557E-02    0.841E-03
RMM:   5    -0.115938058326E+03   -0.45795E-05   -0.28830E-05    53   0.259E-02
 178 F= -.11618065E+03 E0= -.11618065E+03  d E =-.271832E-03
 BRION: g(F)=  0.736E-02 g(S)=  0.000E+00
 BRIONS problems: POTIM should be increased
 retain N=  1 mean eig=10.21
 eig:  10.208
 bond charge predicted
       N       E                     dE             d eps       ncg     rms          rms(c)
DAV:   1    -0.115938136710E+03   -0.82964E-04   -0.17503E-02    70   0.684E-01    0.268E-02
RMM:   2    -0.115938154836E+03   -0.18126E-04   -0.28334E-04    69   0.854E-02    0.155E-02
RMM:   3    -0.115938160652E+03   -0.58158E-05   -0.44771E-05    55   0.367E-02
 179 F= -.11618075E+03 E0= -.11618075E+03  d E =-.972235E-04
 BRION: g(F)=  0.720E-02 g(S)=  0.000E+00 retain N=  2 mean eig= 7.26
 eig:   7.260  7.260
 bond charge predicted
       N       E                     dE             d eps       ncg     rms          rms(c)
DAV:   1    -0.115938248865E+03   -0.94029E-04   -0.30493E-02    70   0.902E-01    0.354E-02
RMM:   2    -0.115938279356E+03   -0.30491E-04   -0.48917E-04    70   0.112E-01    0.213E-02
RMM:   3    -0.115938288945E+03   -0.95892E-05   -0.77520E-05    57   0.483E-02
 180 F= -.11618087E+03 E0= -.11618087E+03  d E =-.124692E-03
 BRION: g(F)=  0.698E-02 g(S)=  0.000E+00 retain N=  2 mean eig= 6.72
 eig:   6.718  6.718
 bond charge predicted
       N       E                     dE             d eps       ncg     rms          rms(c)
DAV:   1    -0.115938351322E+03   -0.71966E-04   -0.22043E-01    70   0.243E+00    0.964E-02
RMM:   2    -0.115938570389E+03   -0.21907E-03   -0.34646E-03    70   0.299E-01    0.561E-02
RMM:   3    -0.115938632761E+03   -0.62372E-04   -0.52889E-04    70   0.127E-01    0.256E-02
RMM:   4    -0.115938651214E+03   -0.18454E-04   -0.12869E-04    65   0.599E-02    0.911E-03
RMM:   5    -0.115938656436E+03   -0.52220E-05   -0.32821E-05    53   0.281E-02
 181 F= -.11618123E+03 E0= -.11618123E+03  d E =-.353505E-03
 BRION: g(F)=  0.636E-02 g(S)=  0.000E+00
 BRIONS problems: POTIM should be increased
 retain N=  1 mean eig=18.37
 eig:  18.373
 bond charge predicted
       N       E                     dE             d eps       ncg     rms          rms(c)
DAV:   1    -0.115938760458E+03   -0.10924E-03   -0.15771E-02    70   0.655E-01    0.258E-02
RMM:   2    -0.115938776279E+03   -0.15821E-04   -0.26111E-04    69   0.818E-02    0.153E-02
RMM:   3    -0.115938781703E+03   -0.54244E-05   -0.41376E-05    54   0.352E-02
 182 F= -.11618134E+03 E0= -.11618134E+03  d E =-.115188E-03
 BRION: g(F)=  0.615E-02 g(S)=  0.000E+00 retain N=  1 mean eig= 3.92
 eig:   3.920
 bond charge predicted
       N       E                     dE             d eps       ncg     rms          rms(c)
DAV:   1    -0.115938803123E+03   -0.26844E-04   -0.72637E-04    89   0.143E-01    0.105E-02
RMM:   2    -0.115938803648E+03   -0.52519E-06   -0.18588E-05    48   0.213E-02
 183 F= -.11618137E+03 E0= -.11618137E+03  d E =-.251188E-04
 BRION: g(F)=  0.600E-02 g(S)=  0.000E+00 retain N=  1 mean eig= 0.59
 eig:   0.588
 bond charge predicted
       N       E                     dE             d eps       ncg     rms          rms(c)
DAV:   1    -0.115938838213E+03   -0.35090E-04   -0.59493E-04    76   0.130E-01    0.813E-03
RMM:   2    -0.115938839331E+03   -0.11181E-05   -0.14966E-05    45   0.189E-02
 184 F= -.11618140E+03 E0= -.11618140E+03  d E =-.297247E-04
 BRION: g(F)=  0.580E-02 g(S)=  0.000E+00 retain N=  1 mean eig= 0.70
 eig:   0.703
 bond charge predicted
       N       E                     dE             d eps       ncg     rms          rms(c)
DAV:   1    -0.115938869407E+03   -0.31195E-04   -0.55331E-04    76   0.128E-01    0.728E-03
RMM:   2    -0.115938870322E+03   -0.91531E-06   -0.11569E-05    44   0.173E-02
 185 F= -.11618143E+03 E0= -.11618143E+03  d E =-.315973E-04
 BRION: g(F)=  0.565E-02 g(S)=  0.000E+00 retain N=  2 mean eig= 2.34
 eig:   2.344  2.344
 bond charge predicted
       N       E                     dE             d eps       ncg     rms          rms(c)
DAV:   1    -0.115939204720E+03   -0.33531E-03   -0.67625E-02    70   0.138E+00    0.563E-02
RMM:   2    -0.115939259590E+03   -0.54870E-04   -0.99836E-04    70   0.162E-01    0.341E-02
RMM:   3    -0.115939279976E+03   -0.20386E-04   -0.14785E-04    66   0.680E-02    0.124E-02
RMM:   4    -0.115939285879E+03   -0.59029E-05   -0.34292E-05    53   0.313E-02
 186 F= -.11618181E+03 E0= -.11618181E+03  d E =-.380418E-03
 BRION: g(F)=  0.487E-02 g(S)=  0.000E+00
 BRIONS problems: POTIM should be increased
 retain N=  1 mean eig= 9.45
 eig:   9.454
 bond charge predicted
       N       E                     dE             d eps       ncg     rms          rms(c)
DAV:   1    -0.115939223522E+03    0.56453E-04   -0.20774E-03    70   0.243E-01    0.133E-02
RMM:   2    -0.115939224882E+03   -0.13599E-05   -0.38504E-05    50   0.310E-02
 187 F= -.11618176E+03 E0= -.11618176E+03  d E =0.504105E-04
 BRION: g(F)=  0.476E-02 g(S)=  0.000E+00 retain N=  1 mean eig= 1.27
 eig:   1.270
 bond charge predicted
       N       E                     dE             d eps       ncg     rms          rms(c)
DAV:   1    -0.115939285999E+03   -0.62476E-04   -0.15190E-03    73   0.205E-01    0.766E-03
RMM:   2    -0.115939288305E+03   -0.23059E-05   -0.25558E-05    48   0.257E-02
 188 F= -.11618181E+03 E0= -.11618181E+03  d E =-.555098E-04
 BRION: g(F)=  0.457E-02 g(S)=  0.000E+00 retain N=  2 mean eig= 1.95
 eig:   2.724  1.174
 bond charge predicted
       N       E                     dE             d eps       ncg     rms          rms(c)
DAV:   1    -0.115939372317E+03   -0.86318E-04   -0.55087E-03    70   0.387E-01    0.167E-02
RMM:   2    -0.115939377498E+03   -0.51816E-05   -0.88715E-05    59   0.470E-02
 189 F= -.11618190E+03 E0= -.11618190E+03  d E =-.817722E-04
 BRION: g(F)=  0.419E-02 g(S)=  0.000E+00 retain N=  3 mean eig= 2.79
 eig:   4.295  2.036  2.036
 bond charge predicted
       N       E                     dE             d eps       ncg     rms          rms(c)
DAV:   1    -0.115939487733E+03   -0.11542E-03   -0.94024E-03    70   0.507E-01    0.219E-02
RMM:   2    -0.115939496251E+03   -0.85186E-05   -0.15502E-04    64   0.619E-02    0.139E-02
RMM:   3    -0.115939499644E+03   -0.33924E-05   -0.23406E-05    52   0.264E-02
 190 F= -.11618201E+03 E0= -.11618201E+03  d E =-.111043E-03
 BRION: g(F)=  0.392E-02 g(S)=  0.000E+00 retain N=  4 mean eig= 3.50
 eig:   4.633  4.266  4.266  0.852
 bond charge predicted
       N       E                     dE             d eps       ncg     rms          rms(c)
DAV:   1    -0.115939540494E+03   -0.44242E-04   -0.17854E-03    78   0.219E-01    0.896E-03
RMM:   2    -0.115939542625E+03   -0.21309E-05   -0.32584E-05    51   0.284E-02
 191 F= -.11618204E+03 E0= -.11618204E+03  d E =-.373727E-04
 BRION: g(F)=  0.376E-02 g(S)=  0.000E+00 retain N=  3 mean eig= 3.11
 eig:   6.039  0.805  2.476
 bond charge predicted
       N       E                     dE             d eps       ncg     rms          rms(c)
DAV:   1    -0.115939549335E+03   -0.88414E-05   -0.88215E-04    76   0.158E-01    0.120E-02
RMM:   2    -0.115939549234E+03    0.10100E-06   -0.23377E-05    49   0.241E-02
 192 F= -.11618206E+03 E0= -.11618206E+03  d E =-.112097E-04
 BRION: g(F)=  0.375E-02 g(S)=  0.000E+00 retain N=  3 mean eig= 1.50
 eig:   3.064  0.939  0.501
 bond charge predicted
       N       E                     dE             d eps       ncg     rms          rms(c)
DAV:   1    -0.115939613078E+03   -0.63743E-04   -0.31452E-03    70   0.293E-01    0.139E-02
RMM:   2    -0.115939615703E+03   -0.26247E-05   -0.59010E-05    55   0.380E-02
 193 F= -.11618211E+03 E0= -.11618211E+03  d E =-.557349E-04
 BRION: g(F)=  0.359E-02 g(S)=  0.000E+00 retain N=  3 mean eig= 1.14
 eig:   2.381  0.520  0.520
 bond charge predicted
       N       E                     dE             d eps       ncg     rms          rms(c)
DAV:   1    -0.115939693892E+03   -0.80814E-04   -0.70648E-03    70   0.436E-01    0.195E-02
RMM:   2    -0.115939700150E+03   -0.62582E-05   -0.11906E-04    60   0.540E-02    0.122E-02
RMM:   3    -0.115939702631E+03   -0.24811E-05   -0.17853E-05    47   0.229E-02
 194 F= -.11618219E+03 E0= -.11618219E+03  d E =-.795991E-04
 BRION: g(F)=  0.343E-02 g(S)=  0.000E+00 retain N=  3 mean eig= 1.26
 eig:   2.116  0.530  1.135
 bond charge predicted
       N       E                     dE             d eps       ncg     rms          rms(c)
DAV:   1    -0.115939728007E+03   -0.27857E-04   -0.58044E-04    92   0.125E-01    0.523E-03
RMM:   2    -0.115939728818E+03   -0.81057E-06   -0.11046E-05    42   0.165E-02
 195 F= -.11618222E+03 E0= -.11618222E+03  d E =-.235400E-04
 BRION: g(F)=  0.339E-02 g(S)=  0.000E+00 retain N=  3 mean eig= 1.04
 eig:   2.231  0.452  0.452
 bond charge predicted
       N       E                     dE             d eps       ncg     rms          rms(c)
DAV:   1    -0.115939774293E+03   -0.46285E-04   -0.20649E-03    70   0.236E-01    0.998E-03
RMM:   2    -0.115939776348E+03   -0.20550E-05   -0.34656E-05    49   0.290E-02
 196 F= -.11618226E+03 E0= -.11618226E+03  d E =-.425398E-04
 BRION: g(F)=  0.330E-02 g(S)=  0.000E+00 retain N=  4 mean eig= 3.01
 eig:   7.185  3.229  0.622  0.986
 bond charge predicted
       N       E                     dE             d eps       ncg     rms          rms(c)
DAV:   1    -0.115939869777E+03   -0.95484E-04   -0.87188E-03    70   0.482E-01    0.199E-02
RMM:   2    -0.115939878237E+03   -0.84601E-05   -0.14276E-04    61   0.590E-02    0.125E-02
RMM:   3    -0.115939881048E+03   -0.28109E-05   -0.20940E-05    49   0.248E-02
 197 F= -.11618235E+03 E0= -.11618235E+03  d E =-.968539E-04
 BRION: g(F)=  0.274E-02 g(S)=  0.000E+00 retain N=  4 mean eig= 3.98
 eig:   6.834  4.235  4.235  0.623
 bond charge predicted
       N       E                     dE             d eps       ncg     rms          rms(c)
DAV:   1    -0.115939892682E+03   -0.14445E-04   -0.98254E-04    76   0.168E-01    0.118E-02
RMM:   2    -0.115939892933E+03   -0.25138E-06   -0.24871E-05    50   0.246E-02
 198 F= -.11618237E+03 E0= -.11618237E+03  d E =-.166847E-04
 BRION: g(F)=  0.249E-02 g(S)=  0.000E+00 retain N=  3 mean eig= 2.84
 eig:   7.159  0.674  0.674
 bond charge predicted
       N       E                     dE             d eps       ncg     rms          rms(c)
DAV:   1    -0.115940021111E+03   -0.12843E-03   -0.15448E-02    70   0.648E-01    0.277E-02
RMM:   2    -0.115940034443E+03   -0.13333E-04   -0.26210E-04    68   0.803E-02    0.165E-02
RMM:   3    -0.115940037405E+03   -0.29616E-05   -0.37268E-05    52   0.332E-02
 199 F= -.11618249E+03 E0= -.11618249E+03  d E =-.123458E-03
 BRION: g(F)=  0.203E-02 g(S)=  0.000E+00 retain N=  4 mean eig= 3.06
 eig:   6.320  3.890  1.550  0.478
 bond charge predicted
       N       E                     dE             d eps       ncg     rms          rms(c)
DAV:   1    -0.115940107188E+03   -0.72745E-04   -0.33323E-03    70   0.305E-01    0.142E-02
RMM:   2    -0.115940109921E+03   -0.27326E-05   -0.62278E-05    57   0.398E-02
 200 F= -.11618257E+03 E0= -.11618257E+03  d E =-.723199E-04
 BRION: g(F)=  0.181E-02 g(S)=  0.000E+00 retain N=  4 mean eig= 2.28
 eig:   4.685  1.428  1.428  1.564
 bond charge predicted
       N       E                     dE             d eps       ncg     rms          rms(c)
DAV:   1    -0.115940177786E+03   -0.70598E-04   -0.26116E-03    70   0.270E-01    0.136E-02
RMM:   2    -0.115940179619E+03   -0.18331E-05   -0.46035E-05    52   0.340E-02
 201 F= -.11618263E+03 E0= -.11618263E+03  d E =-.632277E-04
 BRION: g(F)=  0.165E-02 g(S)=  0.000E+00 retain N=  4 mean eig= 1.23
 eig:   1.393  1.393  0.258  1.861
 bond charge predicted
       N       E                     dE             d eps       ncg     rms          rms(c)
DAV:   1    -0.115940264346E+03   -0.86560E-04   -0.40970E-03    70   0.338E-01    0.148E-02
RMM:   2    -0.115940267755E+03   -0.34091E-05   -0.65958E-05    56   0.409E-02
 202 F= -.11618271E+03 E0= -.11618271E+03  d E =-.807613E-04
 BRION: g(F)=  0.157E-02 g(S)=  0.000E+00 retain N=  4 mean eig= 1.83
 eig:   2.439  2.439  1.902  0.556
 bond charge predicted
       N       E                     dE             d eps       ncg     rms          rms(c)
DAV:   1    -0.115940447333E+03   -0.18299E-03   -0.21385E-02    70   0.771E-01    0.318E-02
RMM:   2    -0.115940465341E+03   -0.18008E-04   -0.32923E-04    69   0.919E-02    0.199E-02
RMM:   3    -0.115940472243E+03   -0.69022E-05   -0.49125E-05    55   0.388E-02
 203 F= -.11618290E+03 E0= -.11618290E+03  d E =-.187381E-03
 BRION: g(F)=  0.135E-02 g(S)=  0.000E+00 retain N=  4 mean eig= 3.66
 eig:   6.280  6.280  1.049  1.049
 bond charge predicted
       N       E                     dE             d eps       ncg     rms          rms(c)
DAV:   1    -0.115940632661E+03   -0.16732E-03   -0.18925E-02    70   0.725E-01    0.289E-02
RMM:   2    -0.115940650718E+03   -0.18057E-04   -0.30007E-04    69   0.885E-02    0.180E-02
RMM:   3    -0.115940656722E+03   -0.60047E-05   -0.46637E-05    54   0.375E-02
 204 F= -.11618307E+03 E0= -.11618307E+03  d E =-.172172E-03
 BRION: g(F)=  0.121E-02 g(S)=  0.000E+00 retain N=  4 mean eig= 4.47
 eig:   7.622  7.622  1.318  1.318
 bond charge predicted
       N       E                     dE             d eps       ncg     rms          rms(c)
DAV:   1    -0.115940796632E+03   -0.14591E-03   -0.11212E-02    70   0.561E-01    0.232E-02
RMM:   2    -0.115940806253E+03   -0.96215E-05   -0.18435E-04    68   0.696E-02    0.144E-02
RMM:   3    -0.115940809493E+03   -0.32397E-05   -0.29746E-05    53   0.297E-02
 205 F= -.11618321E+03 E0= -.11618321E+03  d E =-.135457E-03
 BRION: g(F)=  0.104E-02 g(S)=  0.000E+00 retain N=  3 mean eig= 4.11
 eig:   5.431  5.431  1.478
 bond charge predicted
       N       E                     dE             d eps       ncg     rms          rms(c)
DAV:   1    -0.115940918578E+03   -0.11232E-03   -0.72221E-03    76   0.451E-01    0.187E-02
RMM:   2    -0.115940925108E+03   -0.65306E-05   -0.11680E-04    63   0.556E-02    0.116E-02
RMM:   3    -0.115940927494E+03   -0.23858E-05   -0.19064E-05    49   0.235E-02
 206 F= -.11618332E+03 E0= -.11618332E+03  d E =-.112085E-03
 BRION: g(F)=  0.922E-03 g(S)=  0.000E+00 retain N=  3 mean eig= 3.70
 eig:   4.902  4.902  1.310
 bond charge predicted
       N       E                     dE             d eps       ncg     rms          rms(c)
DAV:   1    -0.115941111716E+03   -0.18661E-03   -0.21994E-02    70   0.785E-01    0.311E-02
RMM:   2    -0.115941130887E+03   -0.19170E-04   -0.32947E-04    69   0.935E-02    0.192E-02
RMM:   3    -0.115941137594E+03   -0.67072E-05   -0.50543E-05    58   0.395E-02
 207 F= -.11618351E+03 E0= -.11618351E+03  d E =-.190487E-03
 BRION: g(F)=  0.804E-03 g(S)=  0.000E+00 retain N=  3 mean eig= 4.79
 eig:   6.467  6.467  1.433
 bond charge predicted
       N       E                     dE             d eps       ncg     rms          rms(c)
DAV:   1    -0.115941271062E+03   -0.14018E-03   -0.10548E-02    70   0.547E-01    0.219E-02
RMM:   2    -0.115941280843E+03   -0.97809E-05   -0.16565E-04    67   0.669E-02    0.138E-02
RMM:   3    -0.115941284695E+03   -0.38517E-05   -0.27130E-05    52   0.286E-02
 208 F= -.11618364E+03 E0= -.11618364E+03  d E =-.134389E-03
 BRION: g(F)=  0.714E-03 g(S)=  0.000E+00 retain N=  3 mean eig= 5.81
 eig:   1.757  7.835  7.835
 bond charge predicted
       N       E                     dE             d eps       ncg     rms          rms(c)
DAV:   1    -0.115941384125E+03   -0.10328E-03   -0.55776E-03    70   0.398E-01    0.160E-02
RMM:   2    -0.115941389448E+03   -0.53225E-05   -0.88298E-05    60   0.489E-02
 209 F= -.11618374E+03 E0= -.11618374E+03  d E =-.957696E-04
 BRION: g(F)=  0.651E-03 g(S)=  0.000E+00 retain N=  2 mean eig= 4.86
 eig:   4.857  4.857
 bond charge predicted
       N       E                     dE             d eps       ncg     rms          rms(c)
DAV:   1    -0.115941498290E+03   -0.11417E-03   -0.63404E-03    70   0.429E-01    0.194E-02
RMM:   2    -0.115941502875E+03   -0.45850E-05   -0.10019E-04    64   0.518E-02    0.123E-02
RMM:   3    -0.115941505559E+03   -0.26841E-05   -0.16208E-05    48   0.221E-02
 210 F= -.11618385E+03 E0= -.11618385E+03  d E =-.106793E-03
 BRION: g(F)=  0.598E-03 g(S)=  0.000E+00 retain N=  2 mean eig= 4.07
 eig:   4.065  4.065
 bond charge predicted
       N       E                     dE             d eps       ncg     rms          rms(c)
DAV:   1    -0.115941557240E+03   -0.54365E-04   -0.13580E-03    76   0.198E-01    0.833E-03
RMM:   2    -0.115941558697E+03   -0.14569E-05   -0.23101E-05    48   0.250E-02
 211 F= -.11618389E+03 E0= -.11618389E+03  d E =-.472148E-04
 BRION: g(F)=  0.567E-03 g(S)=  0.000E+00 retain N=  3 mean eig= 4.49
 eig:   6.199  6.199  1.078
 bond charge predicted
       N       E                     dE             d eps       ncg     rms          rms(c)
DAV:   1    -0.115941744282E+03   -0.18704E-03   -0.22856E-02    70   0.809E-01    0.334E-02
RMM:   2    -0.115941761683E+03   -0.17401E-04   -0.33272E-04    70   0.949E-02    0.206E-02
RMM:   3    -0.115941768878E+03   -0.71955E-05   -0.50438E-05    58   0.400E-02
 212 F= -.11618408E+03 E0= -.11618408E+03  d E =-.191775E-03
 BRION: g(F)=  0.479E-03 g(S)=  0.000E+00 retain N=  1 mean eig= 7.18
 eig:   7.178
 bond charge predicted
       N       E                     dE             d eps       ncg     rms          rms(c)
DAV:   1    -0.115941777057E+03   -0.15375E-04   -0.92834E-05    89   0.514E-02    0.350E-03
RMM:   2    -0.115941777448E+03   -0.39048E-06   -0.24027E-06    36   0.805E-03
 213 F= -.11618409E+03 E0= -.11618409E+03  d E =-.830857E-05
 BRION: g(F)=  0.469E-03 g(S)=  0.000E+00 retain N=  1 mean eig= 0.63
 eig:   0.631
 bond charge predicted
       N       E                     dE             d eps       ncg     rms          rms(c)
DAV:   1    -0.115941798731E+03   -0.21674E-04   -0.25803E-04    73   0.862E-02    0.372E-03
RMM:   2    -0.115941799236E+03   -0.50486E-06   -0.42339E-06    39   0.105E-02
 214 F= -.11618411E+03 E0= -.11618411E+03  d E =-.197712E-04
 BRION: g(F)=  0.445E-03 g(S)=  0.000E+00 retain N=  2 mean eig= 1.33
 eig:   1.333  1.333
 bond charge predicted
       N       E                     dE             d eps       ncg     rms          rms(c)
DAV:   1    -0.115941951137E+03   -0.15241E-03   -0.23337E-02    70   0.815E-01    0.325E-02
RMM:   2    -0.115941970862E+03   -0.19725E-04   -0.34628E-04    70   0.963E-02    0.197E-02
RMM:   3    -0.115941977704E+03   -0.68422E-05   -0.51975E-05    58   0.407E-02
 215 F= -.11618428E+03 E0= -.11618428E+03  d E =-.163116E-03
 BRION: g(F)=  0.314E-03 g(S)=  0.000E+00
 BRIONS problems: POTIM should be increased
 retain N=  1 mean eig=10.30
 eig:  10.295
 reached required accuracy - stopping structural energy minimisation
