<?xml version="1.0" encoding="ISO-8859-1"?>
<modeling>
 <generator>
  <i name="program" type="string">vasp </i>
  <i name="version" type="string">6.3.2  </i>
  <i name="subversion" type="string">27Jun22 (build Dec 05 2023 10:50:29) complex                          parallel </i>
  <i name="platform" type="string">LinuxIFC </i>
  <i name="date" type="string">2023 12 06 </i>
  <i name="time" type="string">06:37:08 </i>
 </generator>
 <incar>
  <i type="string" name="ALGO">Fast</i>
  <i type="int" name="ISPIN">     1</i>
  <i name="ENCUT">    600.00000000</i>
  <i type="int" name="ISMEAR">     0</i>
  <i name="SIGMA">      0.05000000</i>
  <i type="logical" name="LWAVE"> F  </i>
  <i type="logical" name="LCHARG"> F  </i>
  <i type="string" name="GGA">PE</i>
  <i type="int" name="IVDW">    11</i>
 </incar>
 <primitive_cell>
  <structure name="primitive_cell" >
   <crystal>
    <varray name="basis" >
     <v>      21.69110000       0.00000000       0.00000000 </v>
     <v>       0.00000000      17.18710000       0.00000000 </v>
     <v>       0.00000000       0.00000000      16.80880000 </v>
    </varray>
    <i name="volume">   6266.44006333 </i>
    <varray name="rec_basis" >
     <v>       0.04610186       0.00000000       0.00000000 </v>
     <v>       0.00000000       0.05818317       0.00000000 </v>
     <v>       0.00000000       0.00000000       0.05949265 </v>
    </varray>
   </crystal>
   <varray name="positions" >
    <v>       0.37772009       0.48352733       0.51205527 </v>
    <v>       0.49729526       0.47279503       0.49208386 </v>
    <v>       0.55667312       0.52324024       0.50656488 </v>
    <v>       0.43772894       0.52305363       0.48900822 </v>
    <v>       0.61584365       0.47614854       0.49860870 </v>
    <v>       0.50287429       0.43378908       0.44199470 </v>
    <v>       0.49074438       0.43552789       0.54734129 </v>
    <v>       0.55408877       0.53941382       0.57069780 </v>
    <v>       0.56033223       0.58064361       0.47210529 </v>
    <v>       0.44298255       0.56995219       0.53054269 </v>
    <v>       0.43194902       0.55183758       0.43012793 </v>
    <v>       0.65565548       0.50968435       0.51910859 </v>
    <v>       0.61232786       0.42202771       0.52975145 </v>
    <v>       0.62619424       0.46258631       0.43603994 </v>
    <v>       0.37699513       0.47630127       0.57359050 </v>
    <v>       0.38583064       0.42716232       0.49644765 </v>
   </varray>
  </structure>
  <varray name="primitive_index" >
   <v type="int" >        1 </v>
   <v type="int" >        2 </v>
   <v type="int" >        3 </v>
   <v type="int" >        4 </v>
   <v type="int" >        5 </v>
   <v type="int" >        6 </v>
   <v type="int" >        7 </v>
   <v type="int" >        8 </v>
   <v type="int" >        9 </v>
   <v type="int" >       10 </v>
   <v type="int" >       11 </v>
   <v type="int" >       12 </v>
   <v type="int" >       13 </v>
   <v type="int" >       14 </v>
   <v type="int" >       15 </v>
   <v type="int" >       16 </v>
  </varray>
 </primitive_cell>
 <kpoints>
  <generation param="Gamma">
   <v type="int" name="divisions">       1        1        1 </v>
   <v name="usershift">      0.00000000       0.00000000       0.00000000 </v>
   <v name="genvec1">      1.00000000       0.00000000       0.00000000 </v>
   <v name="genvec2">      0.00000000       1.00000000       0.00000000 </v>
   <v name="genvec3">      0.00000000       0.00000000       1.00000000 </v>
   <v name="shift">      0.00000000       0.00000000       0.00000000 </v>
  </generation>
  <varray name="kpointlist" >
   <v>       0.00000000       0.00000000       0.00000000 </v>
  </varray>
  <varray name="weights" >
   <v>       1.00000000 </v>
  </varray>
 </kpoints>
 <parameters>
  <separator name="general" >
   <i type="string" name="SYSTEM">unknown system</i>
   <i type="logical" name="LCOMPAT"> F  </i>
  </separator>
  <separator name="electronic" >
   <i type="string" name="PREC">normal</i>
   <i name="ENMAX">    600.00000000</i>
   <i name="ENAUG">    644.87300000</i>
   <i name="EDIFF">      0.00010000</i>
   <i type="int" name="IALGO">    68</i>
   <i type="int" name="IWAVPR">    10</i>
   <i type="int" name="NBANDS">    28</i>
   <i type="int" name="NBANDSLOW">    -1</i>
   <i type="int" name="NBANDSHIGH">    -1</i>
   <i name="NELECT">     32.00000000</i>
   <i type="int" name="TURBO">     0</i>
   <i type="int" name="IRESTART">     0</i>
   <i type="int" name="NREBOOT">     0</i>
   <i type="int" name="NMIN">     0</i>
   <i name="EREF">      0.00000000</i>
   <separator name="electronic smearing" >
    <i type="int" name="ISMEAR">     0</i>
    <i name="SIGMA">      0.05000000</i>
    <i name="KSPACING">      0.50000000</i>
    <i type="logical" name="KGAMMA"> T  </i>
    <i type="logical" name="KBLOWUP"> T  </i>
   </separator>
   <separator name="electronic projectors" >
    <i type="logical" name="LREAL"> F  </i>
    <v name="ROPT">      0.00000000      0.00000000      0.00000000</v>
    <i type="int" name="LMAXPAW">  -100</i>
    <i type="int" name="LMAXMIX">     2</i>
    <i type="logical" name="NLSPLINE"> F  </i>
   </separator>
   <separator name="electronic startup" >
    <i type="int" name="ISTART">     0</i>
    <i type="int" name="ICHARG">     2</i>
    <i type="int" name="INIWAV">     1</i>
   </separator>
   <separator name="electronic spin" >
    <i type="int" name="ISPIN">     1</i>
    <i type="logical" name="LNONCOLLINEAR"> F  </i>
    <v name="MAGMOM">      1.00000000      1.00000000      1.00000000      1.00000000      1.00000000      1.00000000      1.00000000      1.00000000      1.00000000      1.00000000      1.00000000      1.00000000      1.00000000      1.00000000      1.00000000      1.00000000</v>
    <i name="NUPDOWN">     -1.00000000</i>
    <i type="logical" name="LSORBIT"> F  </i>
    <v name="SAXIS">      0.00000000      0.00000000      1.00000000</v>
    <i type="logical" name="LSPIRAL"> F  </i>
    <v name="QSPIRAL">      0.00000000      0.00000000      0.00000000</v>
    <i type="logical" name="LZEROZ"> F  </i>
   </separator>
   <separator name="electronic exchange-correlation" >
    <i type="logical" name="LASPH"> F  </i>
    <i type="logical" name="LMETAGGA"> F  </i>
   </separator>
   <separator name="electronic convergence" >
    <i type="int" name="NELM">    60</i>
    <i type="int" name="NELMDL">     0</i>
    <i type="int" name="NELMIN">     2</i>
    <i name="ENINI">    600.00000000</i>
    <separator name="electronic convergence detail" >
     <i type="logical" name="LDIAG"> T  </i>
     <i type="logical" name="LSUBROT"> F  </i>
     <i name="WEIMIN">      0.00000000</i>
     <i name="EBREAK">      0.00000089</i>
     <i name="DEPER">      0.30000000</i>
     <i type="int" name="NRMM">     4</i>
     <i name="TIME">      0.40000000</i>
    </separator>
   </separator>
   <separator name="electronic mixer" >
    <i name="AMIX">      0.40000000</i>
    <i name="BMIX">      1.00000000</i>
    <i name="AMIN">      0.10000000</i>
    <i name="AMIX_MAG">      1.60000000</i>
    <i name="BMIX_MAG">      1.00000000</i>
    <separator name="electronic mixer details" >
     <i type="int" name="IMIX">     4</i>
     <i type="logical" name="MIXFIRST"> F  </i>
     <i type="int" name="MAXMIX">   -45</i>
     <i name="WC">    100.00000000</i>
     <i type="int" name="INIMIX">     1</i>
     <i type="int" name="MIXPRE">     1</i>
     <i type="int" name="MREMOVE">     5</i>
    </separator>
   </separator>
   <separator name="electronic dipolcorrection" >
    <i type="logical" name="LDIPOL"> F  </i>
    <i type="logical" name="LMONO"> F  </i>
    <i type="int" name="IDIPOL">     0</i>
    <i name="EPSILON">      1.00000000</i>
    <v name="DIPOL">   -100.00000000   -100.00000000   -100.00000000</v>
    <i name="EFIELD">      0.00000000</i>
   </separator>
  </separator>
  <separator name="grids" >
   <i type="int" name="NGX">   140</i>
   <i type="int" name="NGY">   108</i>
   <i type="int" name="NGZ">   108</i>
   <i type="int" name="NGXF">   280</i>
   <i type="int" name="NGYF">   216</i>
   <i type="int" name="NGZF">   216</i>
   <i type="logical" name="ADDGRID"> F  </i>
  </separator>
  <separator name="ionic" >
   <i type="int" name="NSW">     0</i>
   <i type="int" name="IBRION">    -1</i>
   <i type="int" name="MDALGO">     0</i>
   <i type="int" name="ISIF">     2</i>
   <i name="PSTRESS">      0.00000000</i>
   <i name="EDIFFG">      0.00100000</i>
   <i type="int" name="NFREE">     0</i>
   <i name="POTIM">      0.50000000</i>
   <i name="SMASS">     -3.00000000</i>
   <i name="SCALEE">      1.00000000</i>
  </separator>
  <separator name="ionic md" >
   <i name="TEBEG">      0.00010000</i>
   <i name="TEEND">      0.00010000</i>
   <i type="int" name="NBLOCK">     1</i>
   <i type="int" name="KBLOCK">     1</i>
   <i type="int" name="NPACO">   256</i>
   <i name="APACO">     10.00000000</i>
  </separator>
  <separator name="symmetry" >
   <i type="int" name="ISYM">     2</i>
   <i name="SYMPREC">      0.00001000</i>
  </separator>
  <separator name="dos" >
   <i type="int" name="LORBIT">     0</i>
   <v name="RWIGS">     -1.00000000     -1.00000000     -1.00000000</v>
   <i type="int" name="NEDOS">   301</i>
   <i name="EMIN">     10.00000000</i>
   <i name="EMAX">    -10.00000000</i>
   <i name="EFERMI">      0.00000000</i>
  </separator>
  <separator name="writing" >
   <i type="int" name="NWRITE">     2</i>
   <i type="logical" name="LWAVE"> F  </i>
   <i type="logical" name="LDOWNSAMPLE"> F  </i>
   <i type="logical" name="LCHARG"> F  </i>
   <i type="logical" name="LPARD"> F  </i>
   <i type="logical" name="LVTOT"> F  </i>
   <i type="logical" name="LVHAR"> F  </i>
   <i type="logical" name="LELF"> F  </i>
   <i type="logical" name="LOPTICS"> F  </i>
   <v name="STM">      0.00000000      0.00000000      0.00000000      0.00000000      0.00000000      0.00000000      0.00000000</v>
  </separator>
  <separator name="performance" >
   <i type="int" name="NPAR">     4</i>
   <i type="int" name="NSIM">     4</i>
   <i type="int" name="NBLK">    -1</i>
   <i type="logical" name="LPLANE"> T  </i>
   <i type="logical" name="LSCALAPACK"> T  </i>
   <i type="logical" name="LSCAAWARE"> F  </i>
   <i type="logical" name="LSCALU"> F  </i>
   <i type="logical" name="LASYNC"> F  </i>
   <i type="logical" name="LORBITALREAL"> F  </i>
  </separator>
  <separator name="miscellaneous" >
   <i type="int" name="IDIOT">     3</i>
   <i type="int" name="PHON_NSTRUCT">    -1</i>
   <i type="logical" name="LMUSIC"> F  </i>
   <v name="POMASS">     14.00100000     12.01100000      1.00000000</v>
   <v name="DARWINR">      0.00000000      0.00000000      0.00000000</v>
   <v name="DARWINV">      1.00000000      1.00000000      1.00000000</v>
   <i type="logical" name="LCORR"> T  </i>
  </separator>
  <i type="logical" name="GGA_COMPAT"> T  </i>
  <i type="logical" name="LBERRY"> F  </i>
  <i type="int" name="ICORELEVEL">     0</i>
  <i type="logical" name="LDAU"> F  </i>
  <i type="int" name="I_CONSTRAINED_M">     0</i>
  <separator name="electronic exchange-correlation" >
   <i type="string" name="GGA">PE</i>
   <i type="int" name="VOSKOWN">     0</i>
   <i type="logical" name="LHFCALC"> F  </i>
   <i type="string" name="PRECFOCK"></i>
   <i type="logical" name="LSYMGRAD"> F  </i>
   <i type="logical" name="LHFONE"> F  </i>
   <i type="logical" name="LRHFCALC"> F  </i>
   <i type="logical" name="LTHOMAS"> F  </i>
   <i type="logical" name="LMODELHF"> F  </i>
   <i type="logical" name="LFOCKACE"> F  </i>
   <i name="ENCUT4O">     -1.00000000</i>
   <i type="int" name="EXXOEP">     0</i>
   <i type="int" name="FOURORBIT">     0</i>
   <i name="AEXX">      0.00000000</i>
   <i name="HFALPHA">      0.00000000</i>
   <i name="MCALPHA">      0.00000000</i>
   <i name="ALDAX">      1.00000000</i>
   <i name="AGGAX">      1.00000000</i>
   <i name="ALDAC">      1.00000000</i>
   <i name="AGGAC">      1.00000000</i>
   <i type="int" name="NKREDX">     1</i>
   <i type="int" name="NKREDY">     1</i>
   <i type="int" name="NKREDZ">     1</i>
   <i type="logical" name="SHIFTRED"> F  </i>
   <i type="logical" name="ODDONLY"> F  </i>
   <i type="logical" name="EVENONLY"> F  </i>
   <i type="int" name="LMAXFOCK">     0</i>
   <i type="int" name="NMAXFOCKAE">     0</i>
   <i type="logical" name="LFOCKAEDFT"> F  </i>
   <i name="HFSCREEN">      0.00000000</i>
   <i name="HFSCREENC">      0.00000000</i>
   <i type="int" name="NBANDSGWLOW">     0</i>
  </separator>
  <separator name="vdW DFT" >
   <i type="logical" name="LUSE_VDW"> F  </i>
   <i name="Zab_VDW">     -0.84910000</i>
   <i name="PARAM1">      0.12340000</i>
   <i name="PARAM2">      1.00000000</i>
   <i name="PARAM3">      0.00000000</i>
  </separator>
  <separator name="model GW" >
   <i type="int" name="MODEL_GW">     0</i>
   <i name="MODEL_EPS0">    234.99150237</i>
   <i name="MODEL_ALPHA">      1.00000000</i>
  </separator>
  <separator name="linear response parameters" >
   <i type="logical" name="LEPSILON"> F  </i>
   <i type="logical" name="LRPA"> F  </i>
   <i type="logical" name="LNABLA"> F  </i>
   <i type="logical" name="LVEL"> F  </i>
   <i name="CSHIFT">      0.10000000</i>
   <i name="OMEGAMAX">     -1.00000000</i>
   <i name="DEG_THRESHOLD">      0.00200000</i>
   <i name="RTIME">     -0.10000000</i>
   <i name="WPLASMAI">      0.00000000</i>
   <v name="DFIELD">      0.00000000      0.00000000      0.00000000</v>
   <v name="WPLASMA">      0.00000000      0.00000000      0.00000000      0.00000000      0.00000000      0.00000000      0.00000000      0.00000000      0.00000000</v>
  </separator>
  <separator name="orbital magnetization" >
   <i type="logical" name="NUCIND"> F  </i>
   <v name="MAGPOS">      0.00000000      0.00000000      0.00000000</v>
   <i type="logical" name="LNICSALL"> T  </i>
   <i type="logical" name="ORBITALMAG"> F  </i>
   <i type="logical" name="LMAGBLOCH"> F  </i>
   <i type="logical" name="LCHIMAG"> F  </i>
   <i type="logical" name="LGAUGE"> T  </i>
   <i type="int" name="MAGATOM">     0</i>
   <v name="MAGDIPOL">      0.00000000      0.00000000      0.00000000</v>
   <v name="AVECCONST">      0.00000000      0.00000000      0.00000000</v>
  </separator>
  <separator name="response functions" >
   <i type="logical" name="LFINITE_TEMPERATURE"> F  </i>
   <i type="logical" name="LADDER"> F  </i>
   <i type="logical" name="LRPAFORCE"> F  </i>
   <i type="logical" name="LFXC"> F  </i>
   <i type="logical" name="LHARTREE"> T  </i>
   <i type="int" name="IBSE">     0</i>
   <v type="int" name="KPOINT">    -1     0     0     0</v>
   <i type="logical" name="LTCTC"> F  </i>
   <i type="logical" name="LTCTE"> F  </i>
   <i type="logical" name="LTETE"> F  </i>
   <i type="logical" name="LTRIPLET"> F  </i>
   <i type="logical" name="LFXCEPS"> F  </i>
   <i type="logical" name="LFXHEG"> F  </i>
   <i type="int" name="NATURALO">     2</i>
   <i type="logical" name="LHOLEGF"> F  </i>
   <i type="logical" name="L2ORDER"> F  </i>
   <i type="logical" name="LDMP1"> F  </i>
   <i type="logical" name="LMP2LT"> F  </i>
   <i type="logical" name="LSMP2LT"> F  </i>
   <i type="logical" name="LGWLF"> F  </i>
   <i name="ENCUTGW">     -2.00000000</i>
   <i name="ENCUTGWSOFT">     -2.00000000</i>
   <i name="ENCUTLF">     -1.00000000</i>
   <i type="logical" name="LESF_SPLINES"> F  </i>
   <i type="int" name="LMAXMP2">    -1</i>
   <i name="SCISSOR">      0.00000000</i>
   <i type="int" name="NOMEGA">     0</i>
   <i type="int" name="NOMEGAR">     0</i>
   <i type="int" name="NBANDSGW">    -1</i>
   <i type="int" name="NBANDSO">    -1</i>
   <i type="int" name="NBANDSV">    -1</i>
   <i type="int" name="NELMGW">     1</i>
   <i type="int" name="NELMHF">     1</i>
   <i type="int" name="DIM">     3</i>
   <i type="int" name="IESPILON">     4</i>
   <i type="int" name="ANTIRES">     0</i>
   <i name="OMEGAMAX">    -30.00000000</i>
   <i name="OMEGAMIN">    -30.00000000</i>
   <i name="OMEGATL">   -200.00000000</i>
   <i type="int" name="OMEGAGRID">     0</i>
   <i name="CSHIFT">     -0.10000000</i>
   <i type="logical" name="LSELFENERGY"> F  </i>
   <i type="logical" name="LSPECTRAL"> F  </i>
   <i type="logical" name="LSPECTRALGW"> F  </i>
   <i type="logical" name="LSINGLES"> F  </i>
   <i type="logical" name="LFERMIGW"> F  </i>
   <i type="logical" name="ODDONLYGW"> F  </i>
   <i type="logical" name="EVENONLYGW"> F  </i>
   <i type="int" name="NKREDLFX">     1</i>
   <i type="int" name="NKREDLFY">     1</i>
   <i type="int" name="NKREDLFZ">     1</i>
   <i type="int" name="MAXMEM">  2800</i>
   <i type="int" name="TELESCOPE">     0</i>
   <i type="int" name="NTAUPAR">    -1</i>
   <i type="int" name="NOMEGAPAR">    -1</i>
   <i name="DAMP_NEWTON">      0.80000001</i>
   <i name="LAMBDA">      1.00000000</i>
  </separator>
  <separator name="External order field" >
   <i name="OFIELD_KAPPA">      0.00000000</i>
   <v name="OFIELD_K">      0.00000000      0.00000000      0.00000000</v>
   <i name="OFIELD_Q6_NEAR">      0.00000000</i>
   <i name="OFIELD_Q6_FAR">      0.00000000</i>
   <i name="OFIELD_A">      0.00000000</i>
  </separator>
  <separator name="optional k-points parameters" >
   <i type="int" name="KPOINTS_OPT_MODE">     1</i>
   <i type="logical" name="LKPOINTS_OPT"> F  </i>
  </separator>
 </parameters>
 <atominfo>
  <atoms>      16 </atoms>
  <types>       3 </types>
  <array name="atoms" >
   <dimension dim="1">ion</dimension>
   <field type="string">element</field>
   <field type="int">atomtype</field>
   <set>
    <rc><c>N </c><c>   1</c></rc>
    <rc><c>C </c><c>   2</c></rc>
    <rc><c>C </c><c>   2</c></rc>
    <rc><c>C </c><c>   2</c></rc>
    <rc><c>C </c><c>   2</c></rc>
    <rc><c>H </c><c>   3</c></rc>
    <rc><c>H </c><c>   3</c></rc>
    <rc><c>H </c><c>   3</c></rc>
    <rc><c>H </c><c>   3</c></rc>
    <rc><c>H </c><c>   3</c></rc>
    <rc><c>H </c><c>   3</c></rc>
    <rc><c>H </c><c>   3</c></rc>
    <rc><c>H </c><c>   3</c></rc>
    <rc><c>H </c><c>   3</c></rc>
    <rc><c>H </c><c>   3</c></rc>
    <rc><c>H </c><c>   3</c></rc>
   </set>
  </array>
  <array name="atomtypes" >
   <dimension dim="1">type</dimension>
   <field type="int">atomspertype</field>
   <field type="string">element</field>
   <field>mass</field>
   <field>valence</field>
   <field type="string">pseudopotential</field>
   <set>
    <rc><c>   1</c><c>N </c><c>     14.00100000</c><c>      5.00000000</c><c>  PAW_PBE N 08Apr2002                   </c></rc>
    <rc><c>   4</c><c>C </c><c>     12.01100000</c><c>      4.00000000</c><c>  PAW_PBE C 08Apr2002                   </c></rc>
    <rc><c>  11</c><c>H </c><c>      1.00000000</c><c>      1.00000000</c><c>  PAW_PBE H 15Jun2001                   </c></rc>
   </set>
  </array>
 </atominfo>
 <structure name="initialpos" >
  <crystal>
   <varray name="basis" >
    <v>      21.69110000       0.00000000       0.00000000 </v>
    <v>       0.00000000      17.18710000       0.00000000 </v>
    <v>       0.00000000       0.00000000      16.80880000 </v>
   </varray>
   <i name="volume">   6266.44006333 </i>
   <varray name="rec_basis" >
    <v>       0.04610186       0.00000000       0.00000000 </v>
    <v>       0.00000000       0.05818317       0.00000000 </v>
    <v>       0.00000000       0.00000000       0.05949265 </v>
   </varray>
  </crystal>
  <varray name="positions" >
   <v>       0.37772009       0.48352733       0.51205527 </v>
   <v>       0.49729526       0.47279503       0.49208386 </v>
   <v>       0.55667312       0.52324024       0.50656488 </v>
   <v>       0.43772894       0.52305363       0.48900822 </v>
   <v>       0.61584365       0.47614854       0.49860870 </v>
   <v>       0.50287429       0.43378908       0.44199470 </v>
   <v>       0.49074438       0.43552789       0.54734129 </v>
   <v>       0.55408877       0.53941382       0.57069780 </v>
   <v>       0.56033223       0.58064361       0.47210529 </v>
   <v>       0.44298255       0.56995219       0.53054269 </v>
   <v>       0.43194902       0.55183758       0.43012793 </v>
   <v>       0.65565548       0.50968435       0.51910859 </v>
   <v>       0.61232786       0.42202771       0.52975145 </v>
   <v>       0.62619424       0.46258631       0.43603994 </v>
   <v>       0.37699513       0.47630127       0.57359050 </v>
   <v>       0.38583064       0.42716232       0.49644765 </v>
  </varray>
 </structure>
 <calculation>
  <scstep>
   <time name="dav">   13.46   13.47</time>
   <time name="total">   16.42   16.43</time>
   <energy>
    <i name="alphaZ">      0.66637518 </i>
    <i name="ewald">   1817.73879524 </i>
    <i name="hartreedc">  -2457.89435935 </i>
    <i name="XCdc">     97.81587655 </i>
    <i name="pawpsdc">    662.49521893 </i>
    <i name="pawaedc">   -666.06148188 </i>
    <i name="eentropy">     -0.02533965 </i>
    <i name="bandstr">   -222.72926320 </i>
    <i name="atom">    990.50733131 </i>
    <i name="e_fr_energy">    222.51315314 </i>
    <i name="e_wo_entrp">    222.53849278 </i>
    <i name="e_0_energy">    222.52582296 </i>
   </energy>
  </scstep>
  <scstep>
   <time name="dav">   16.79   16.81</time>
   <time name="total">   16.98   17.01</time>
   <energy>
    <i name="e_fr_energy">     39.75214783 </i>
    <i name="e_wo_entrp">     39.75214783 </i>
    <i name="e_0_energy">     39.75214783 </i>
   </energy>
  </scstep>
  <scstep>
   <time name="dav">   14.20   14.23</time>
   <time name="total">   14.43   14.46</time>
   <energy>
    <i name="e_fr_energy">    -79.66147210 </i>
    <i name="e_wo_entrp">    -79.66147210 </i>
    <i name="e_0_energy">    -79.66147210 </i>
   </energy>
  </scstep>
  <scstep>
   <time name="dav">   13.93   13.97</time>
   <time name="total">   14.24   14.28</time>
   <energy>
    <i name="e_fr_energy">    -94.24540444 </i>
    <i name="e_wo_entrp">    -94.24540444 </i>
    <i name="e_0_energy">    -94.24540444 </i>
   </energy>
  </scstep>
  <scstep>
   <time name="dav">   14.05   14.06</time>
   <time name="total">   15.11   15.12</time>
   <energy>
    <i name="e_fr_energy">    -94.58274402 </i>
    <i name="e_wo_entrp">    -94.58274402 </i>
    <i name="e_0_energy">    -94.58274402 </i>
   </energy>
  </scstep>
  <scstep>
   <time name="diag">    2.97    2.97</time>
   <time name="diis">    5.66    5.67</time>
   <time name="orth">    0.11    0.11</time>
   <time name="total">   12.13   12.15</time>
   <energy>
    <i name="e_fr_energy">    -86.79140800 </i>
    <i name="e_wo_entrp">    -86.79140800 </i>
    <i name="e_0_energy">    -86.79140800 </i>
   </energy>
  </scstep>
  <scstep>
   <time name="diag">    3.13    3.13</time>
   <time name="diis">    5.85    5.85</time>
   <time name="orth">    0.26    0.26</time>
   <time name="total">   12.63   12.64</time>
   <energy>
    <i name="e_fr_energy">    -85.24531568 </i>
    <i name="e_wo_entrp">    -85.24531568 </i>
    <i name="e_0_energy">    -85.24531568 </i>
   </energy>
  </scstep>
  <scstep>
   <time name="diag">    2.74    2.74</time>
   <time name="diis">    5.55    5.59</time>
   <time name="orth">    0.16    0.16</time>
   <time name="total">   11.86   11.91</time>
   <energy>
    <i name="e_fr_energy">    -84.97616292 </i>
    <i name="e_wo_entrp">    -84.97616292 </i>
    <i name="e_0_energy">    -84.97616292 </i>
   </energy>
  </scstep>
  <scstep>
   <time name="diag">    2.97    2.97</time>
   <time name="diis">    5.81    5.81</time>
   <time name="orth">    0.17    0.17</time>
   <time name="total">   12.73   12.75</time>
   <energy>
    <i name="e_fr_energy">    -84.87382952 </i>
    <i name="e_wo_entrp">    -84.87382952 </i>
    <i name="e_0_energy">    -84.87382952 </i>
   </energy>
  </scstep>
  <scstep>
   <time name="diag">    2.85    2.85</time>
   <time name="diis">    5.70    5.71</time>
   <time name="orth">    0.11    0.11</time>
   <time name="total">   12.00   12.01</time>
   <energy>
    <i name="e_fr_energy">    -84.88305567 </i>
    <i name="e_wo_entrp">    -84.88305567 </i>
    <i name="e_0_energy">    -84.88305567 </i>
   </energy>
  </scstep>
  <scstep>
   <time name="diag">    2.78    2.78</time>
   <time name="diis">    5.56    5.56</time>
   <time name="orth">    0.36    0.37</time>
   <time name="total">   12.18   12.28</time>
   <energy>
    <i name="e_fr_energy">    -84.87722685 </i>
    <i name="e_wo_entrp">    -84.87722685 </i>
    <i name="e_0_energy">    -84.87722685 </i>
   </energy>
  </scstep>
  <scstep>
   <time name="diag">    3.14    3.14</time>
   <time name="diis">    6.02    6.02</time>
   <time name="orth">    0.21    0.21</time>
   <time name="total">   12.94   12.95</time>
   <energy>
    <i name="e_fr_energy">    -84.88004391 </i>
    <i name="e_wo_entrp">    -84.88004391 </i>
    <i name="e_0_energy">    -84.88004391 </i>
   </energy>
  </scstep>
  <scstep>
   <time name="diag">    2.87    2.87</time>
   <time name="diis">    5.54    5.59</time>
   <time name="orth">    0.13    0.13</time>
   <time name="total">   12.00   12.06</time>
   <energy>
    <i name="e_fr_energy">    -84.88716002 </i>
    <i name="e_wo_entrp">    -84.88716002 </i>
    <i name="e_0_energy">    -84.88716002 </i>
   </energy>
  </scstep>
  <scstep>
   <time name="diag">    3.06    3.06</time>
   <time name="diis">    5.61    5.62</time>
   <time name="orth">    0.47    0.47</time>
   <time name="total">   12.55   12.56</time>
   <energy>
    <i name="e_fr_energy">    -84.89044697 </i>
    <i name="e_wo_entrp">    -84.89044697 </i>
    <i name="e_0_energy">    -84.89044697 </i>
   </energy>
  </scstep>
  <scstep>
   <time name="diag">    3.04    3.04</time>
   <time name="diis">    5.79    5.79</time>
   <time name="orth">    0.17    0.17</time>
   <time name="total">   12.36   12.38</time>
   <energy>
    <i name="e_fr_energy">    -84.89703733 </i>
    <i name="e_wo_entrp">    -84.89703733 </i>
    <i name="e_0_energy">    -84.89703733 </i>
   </energy>
  </scstep>
  <scstep>
   <time name="diag">    3.04    3.04</time>
   <time name="diis">    5.89    5.89</time>
   <time name="orth">    0.19    0.19</time>
   <time name="total">   13.12   13.14</time>
   <energy>
    <i name="e_fr_energy">    -84.89977901 </i>
    <i name="e_wo_entrp">    -84.89977901 </i>
    <i name="e_0_energy">    -84.89977901 </i>
   </energy>
  </scstep>
  <scstep>
   <time name="diag">    3.06    3.06</time>
   <time name="diis">    5.58    5.59</time>
   <time name="orth">    0.24    0.24</time>
   <time name="total">   12.80   12.81</time>
   <energy>
    <i name="e_fr_energy">    -84.90244292 </i>
    <i name="e_wo_entrp">    -84.90244292 </i>
    <i name="e_0_energy">    -84.90244292 </i>
   </energy>
  </scstep>
  <scstep>
   <time name="diag">    3.16    3.19</time>
   <time name="diis">    4.77    4.78</time>
   <time name="orth">    0.43    0.43</time>
   <time name="total">   11.85   11.89</time>
   <energy>
    <i name="e_fr_energy">    -84.90289355 </i>
    <i name="e_wo_entrp">    -84.90289355 </i>
    <i name="e_0_energy">    -84.90289355 </i>
   </energy>
  </scstep>
  <scstep>
   <time name="diag">    2.64    2.65</time>
   <time name="diis">    4.62    4.63</time>
   <time name="orth">    0.18    0.18</time>
   <time name="total">   11.14   11.15</time>
   <energy>
    <i name="e_fr_energy">    -84.90347862 </i>
    <i name="e_wo_entrp">    -84.90347862 </i>
    <i name="e_0_energy">    -84.90347862 </i>
   </energy>
  </scstep>
  <scstep>
   <time name="diag">    2.74    2.74</time>
   <time name="diis">    4.72    4.73</time>
   <time name="orth">    0.22    0.22</time>
   <time name="total">    9.99   10.00</time>
   <energy>
    <i name="alphaZ">      0.66637518 </i>
    <i name="ewald">   1817.73879524 </i>
    <i name="hartreedc">  -2620.55158670 </i>
    <i name="XCdc">    106.11621434 </i>
    <i name="pawpsdc">   2153.86928806 </i>
    <i name="pawaedc">  -2158.25408490 </i>
    <i name="eentropy">     -0.00000000 </i>
    <i name="bandstr">   -374.99589809 </i>
    <i name="atom">    990.50733131 </i>
    <i name="e_fr_energy">    -84.90356556 </i>
    <i name="e_wo_entrp">    -84.90356556 </i>
    <i name="e_0_energy">    -84.90356556 </i>
   </energy>
  </scstep>
  <structure>
   <crystal>
    <varray name="basis" >
     <v>      21.69110000       0.00000000       0.00000000 </v>
     <v>       0.00000000      17.18710000       0.00000000 </v>
     <v>       0.00000000       0.00000000      16.80880000 </v>
    </varray>
    <i name="volume">   6266.44006333 </i>
    <varray name="rec_basis" >
     <v>       0.04610186       0.00000000       0.00000000 </v>
     <v>       0.00000000       0.05818317       0.00000000 </v>
     <v>       0.00000000       0.00000000       0.05949265 </v>
    </varray>
   </crystal>
   <varray name="positions" >
    <v>       0.37772009       0.48352733       0.51205527 </v>
    <v>       0.49729526       0.47279503       0.49208386 </v>
    <v>       0.55667312       0.52324024       0.50656488 </v>
    <v>       0.43772894       0.52305363       0.48900822 </v>
    <v>       0.61584365       0.47614854       0.49860870 </v>
    <v>       0.50287429       0.43378908       0.44199470 </v>
    <v>       0.49074438       0.43552789       0.54734129 </v>
    <v>       0.55408877       0.53941382       0.57069780 </v>
    <v>       0.56033223       0.58064361       0.47210529 </v>
    <v>       0.44298255       0.56995219       0.53054269 </v>
    <v>       0.43194902       0.55183758       0.43012793 </v>
    <v>       0.65565548       0.50968435       0.51910859 </v>
    <v>       0.61232786       0.42202771       0.52975145 </v>
    <v>       0.62619424       0.46258631       0.43603994 </v>
    <v>       0.37699513       0.47630127       0.57359050 </v>
    <v>       0.38583064       0.42716232       0.49644765 </v>
   </varray>
  </structure>
  <varray name="forces" >
   <v>       1.18236369      -0.25272558       0.25822952 </v>
   <v>      -0.23539326       0.84358945       1.48085199 </v>
   <v>      -0.33512779       0.31477445       0.45652412 </v>
   <v>      -0.44730985      -0.40868925      -0.34596252 </v>
   <v>       0.13862073       0.82934183      -1.11483270 </v>
   <v>      -0.07571865      -0.23783627      -0.55243271 </v>
   <v>       0.37994575       0.30259697      -0.82619290 </v>
   <v>      -0.07961337       0.29438548      -0.39108408 </v>
   <v>      -0.39735727      -1.23315112       0.39693245 </v>
   <v>       0.22734245       0.78050399       0.58461789 </v>
   <v>      -0.03079641      -0.39231505       0.22204308 </v>
   <v>       0.13147277      -0.03117687       0.28263374 </v>
   <v>       0.06681522      -0.78448908       0.60128282 </v>
   <v>      -0.11745252      -0.10882136      -0.08739386 </v>
   <v>       0.07385176       0.51775487      -0.47754198 </v>
   <v>      -0.48164325      -0.43374247      -0.48767484 </v>
  </varray>
  <varray name="stress" >
   <v>      -0.61767576      -0.18050180       0.32156930 </v>
   <v>      -0.18050180      -0.11046741       0.65680934 </v>
   <v>       0.32156930       0.65680934      -0.25902515 </v>
  </varray>
  <energy>
   <i name="e_fr_energy">    -85.04143396 </i>
   <i name="e_wo_entrp">    -85.04143396 </i>
   <i name="e_0_energy">    -85.04143396 </i>
  </energy>
  <time name="totalsc">  270.04  270.59</time>
  <eigenvalues>
   <array>
    <dimension dim="1">band</dimension>
    <dimension dim="2">kpoint</dimension>
    <dimension dim="3">spin</dimension>
    <field>eigene</field>
    <field>occ</field>
    <set>
     <set comment="spin 1">
      <set comment="kpoint 1">
       <r>  -21.6212    1.0000 </r>
       <r>  -19.3281    1.0000 </r>
       <r>  -17.3803    1.0000 </r>
       <r>  -15.1214    1.0000 </r>
       <r>  -14.1633    1.0000 </r>
       <r>  -11.7040    1.0000 </r>
       <r>  -11.0358    1.0000 </r>
       <r>  -10.6819    1.0000 </r>
       <r>  -10.1861    1.0000 </r>
       <r>   -9.6890    1.0000 </r>
       <r>   -8.7286    1.0000 </r>
       <r>   -8.5319    1.0000 </r>
       <r>   -8.1574    1.0000 </r>
       <r>   -8.0069    1.0000 </r>
       <r>   -7.5324    1.0000 </r>
       <r>   -5.6296    1.0000 </r>
       <r>   -0.6077    0.0000 </r>
       <r>   -0.2889    0.0000 </r>
       <r>   -0.0513    0.0000 </r>
       <r>    0.0303    0.0000 </r>
       <r>    0.1029    0.0000 </r>
       <r>    0.2964    0.0000 </r>
       <r>    0.3833    0.0000 </r>
       <r>    0.4739    0.0000 </r>
       <r>    0.5941    0.0000 </r>
       <r>    0.6138    0.0000 </r>
       <r>    0.6817    0.0000 </r>
       <r>    0.8169    0.0000 </r>
      </set>
     </set>
    </set>
   </array>
  </eigenvalues>
  <separator name="orbital magnetization" >
   <v name="MAGDIPOLOUT">      0.00000000      0.00000000      0.00000000</v>
  </separator>
  <dos>
   <i name="efermi">     -5.37324472 </i>
   <total>
    <array>
     <dimension dim="1">gridpoints</dimension>
     <dimension dim="2">spin</dimension>
     <field>energy</field>
     <field>total</field>
     <field>integrated</field>
     <set>
      <set comment="spin 1">
       <r>   -22.7431     0.0000     0.0000 </r>
       <r>   -22.6609     0.0000     0.0000 </r>
       <r>   -22.5786     0.0000     0.0000 </r>
       <r>   -22.4963     0.0000     0.0000 </r>
       <r>   -22.4140     0.0000     0.0000 </r>
       <r>   -22.3318     0.0000     0.0000 </r>
       <r>   -22.2495     0.0000     0.0000 </r>
       <r>   -22.1672     0.0000     0.0000 </r>
       <r>   -22.0849     0.0000     0.0000 </r>
       <r>   -22.0027     0.0000     0.0000 </r>
       <r>   -21.9204     0.0000     0.0000 </r>
       <r>   -21.8381     0.0000     0.0000 </r>
       <r>   -21.7559     0.0017     0.0001 </r>
       <r>   -21.6736     1.6835     0.1386 </r>
       <r>   -21.5913    17.7933     1.6026 </r>
       <r>   -21.5090     4.8125     1.9985 </r>
       <r>   -21.4268     0.0183     2.0000 </r>
       <r>   -21.3445     0.0000     2.0000 </r>
       <r>   -21.2622     0.0000     2.0000 </r>
       <r>   -21.1799     0.0000     2.0000 </r>
       <r>   -21.0977     0.0000     2.0000 </r>
       <r>   -21.0154     0.0000     2.0000 </r>
       <r>   -20.9331     0.0000     2.0000 </r>
       <r>   -20.8509     0.0000     2.0000 </r>
       <r>   -20.7686     0.0000     2.0000 </r>
       <r>   -20.6863     0.0000     2.0000 </r>
       <r>   -20.6040     0.0000     2.0000 </r>
       <r>   -20.5218     0.0000     2.0000 </r>
       <r>   -20.4395     0.0000     2.0000 </r>
       <r>   -20.3572     0.0000     2.0000 </r>
       <r>   -20.2749     0.0000     2.0000 </r>
       <r>   -20.1927     0.0000     2.0000 </r>
       <r>   -20.1104     0.0000     2.0000 </r>
       <r>   -20.0281     0.0000     2.0000 </r>
       <r>   -19.9458     0.0000     2.0000 </r>
       <r>   -19.8636     0.0000     2.0000 </r>
       <r>   -19.7813     0.0000     2.0000 </r>
       <r>   -19.6990     0.0000     2.0000 </r>
       <r>   -19.6168     0.0000     2.0000 </r>
       <r>   -19.5345     0.0000     2.0000 </r>
       <r>   -19.4522     0.0054     2.0004 </r>
       <r>   -19.3699     2.8711     2.2367 </r>
       <r>   -19.2877    18.3605     3.7472 </r>
       <r>   -19.2054     3.0660     3.9995 </r>
       <r>   -19.1231     0.0063     4.0000 </r>
       <r>   -19.0408     0.0000     4.0000 </r>
       <r>   -18.9586     0.0000     4.0000 </r>
       <r>   -18.8763     0.0000     4.0000 </r>
       <r>   -18.7940     0.0000     4.0000 </r>
       <r>   -18.7118     0.0000     4.0000 </r>
       <r>   -18.6295     0.0000     4.0000 </r>
       <r>   -18.5472     0.0000     4.0000 </r>
       <r>   -18.4649     0.0000     4.0000 </r>
       <r>   -18.3827     0.0000     4.0000 </r>
       <r>   -18.3004     0.0000     4.0000 </r>
       <r>   -18.2181     0.0000     4.0000 </r>
       <r>   -18.1358     0.0000     4.0000 </r>
       <r>   -18.0536     0.0000     4.0000 </r>
       <r>   -17.9713     0.0000     4.0000 </r>
       <r>   -17.8890     0.0000     4.0000 </r>
       <r>   -17.8068     0.0000     4.0000 </r>
       <r>   -17.7245     0.0000     4.0000 </r>
       <r>   -17.6422     0.0000     4.0000 </r>
       <r>   -17.5599     0.0000     4.0000 </r>
       <r>   -17.4777     0.0717     4.0059 </r>
       <r>   -17.3954     8.0707     4.6699 </r>
       <r>   -17.3131    15.4700     5.9427 </r>
       <r>   -17.2308     0.6966     6.0000 </r>
       <r>   -17.1486     0.0003     6.0000 </r>
       <r>   -17.0663     0.0000     6.0000 </r>
       <r>   -16.9840     0.0000     6.0000 </r>
       <r>   -16.9017     0.0000     6.0000 </r>
       <r>   -16.8195     0.0000     6.0000 </r>
       <r>   -16.7372     0.0000     6.0000 </r>
       <r>   -16.6549     0.0000     6.0000 </r>
       <r>   -16.5727     0.0000     6.0000 </r>
       <r>   -16.4904     0.0000     6.0000 </r>
       <r>   -16.4081     0.0000     6.0000 </r>
       <r>   -16.3258     0.0000     6.0000 </r>
       <r>   -16.2436     0.0000     6.0000 </r>
       <r>   -16.1613     0.0000     6.0000 </r>
       <r>   -16.0790     0.0000     6.0000 </r>
       <r>   -15.9967     0.0000     6.0000 </r>
       <r>   -15.9145     0.0000     6.0000 </r>
       <r>   -15.8322     0.0000     6.0000 </r>
       <r>   -15.7499     0.0000     6.0000 </r>
       <r>   -15.6677     0.0000     6.0000 </r>
       <r>   -15.5854     0.0000     6.0000 </r>
       <r>   -15.5031     0.0000     6.0000 </r>
       <r>   -15.4208     0.0000     6.0000 </r>
       <r>   -15.3386     0.0000     6.0000 </r>
       <r>   -15.2563     0.0017     6.0001 </r>
       <r>   -15.1740     1.6627     6.1369 </r>
       <r>   -15.0917    17.7701     7.5989 </r>
       <r>   -15.0095     4.8561     7.9985 </r>
       <r>   -14.9272     0.0187     8.0000 </r>
       <r>   -14.8449     0.0000     8.0000 </r>
       <r>   -14.7626     0.0000     8.0000 </r>
       <r>   -14.6804     0.0000     8.0000 </r>
       <r>   -14.5981     0.0000     8.0000 </r>
       <r>   -14.5158     0.0000     8.0000 </r>
       <r>   -14.4336     0.0000     8.0000 </r>
       <r>   -14.3513     0.0000     8.0000 </r>
       <r>   -14.2690     0.0338     8.0028 </r>
       <r>   -14.1867     6.1244     8.5067 </r>
       <r>   -14.1045    16.9804     9.9037 </r>
       <r>   -14.0222     1.1699     9.9999 </r>
       <r>   -13.9399     0.0008    10.0000 </r>
       <r>   -13.8576     0.0000    10.0000 </r>
       <r>   -13.7754     0.0000    10.0000 </r>
       <r>   -13.6931     0.0000    10.0000 </r>
       <r>   -13.6108     0.0000    10.0000 </r>
       <r>   -13.5286     0.0000    10.0000 </r>
       <r>   -13.4463     0.0000    10.0000 </r>
       <r>   -13.3640     0.0000    10.0000 </r>
       <r>   -13.2817     0.0000    10.0000 </r>
       <r>   -13.1995     0.0000    10.0000 </r>
       <r>   -13.1172     0.0000    10.0000 </r>
       <r>   -13.0349     0.0000    10.0000 </r>
       <r>   -12.9526     0.0000    10.0000 </r>
       <r>   -12.8704     0.0000    10.0000 </r>
       <r>   -12.7881     0.0000    10.0000 </r>
       <r>   -12.7058     0.0000    10.0000 </r>
       <r>   -12.6236     0.0000    10.0000 </r>
       <r>   -12.5413     0.0000    10.0000 </r>
       <r>   -12.4590     0.0000    10.0000 </r>
       <r>   -12.3767     0.0000    10.0000 </r>
       <r>   -12.2945     0.0000    10.0000 </r>
       <r>   -12.2122     0.0000    10.0000 </r>
       <r>   -12.1299     0.0000    10.0000 </r>
       <r>   -12.0476     0.0000    10.0000 </r>
       <r>   -11.9654     0.0000    10.0000 </r>
       <r>   -11.8831     0.0000    10.0000 </r>
       <r>   -11.8008     0.0750    10.0062 </r>
       <r>   -11.7185     8.1977    10.6806 </r>
       <r>   -11.6363    15.3628    11.9446 </r>
       <r>   -11.5540     0.6736    12.0000 </r>
       <r>   -11.4717     0.0003    12.0000 </r>
       <r>   -11.3895     0.0000    12.0000 </r>
       <r>   -11.3072     0.0000    12.0000 </r>
       <r>   -11.2249     0.0000    12.0000 </r>
       <r>   -11.1426     0.0306    12.0025 </r>
       <r>   -11.0604     5.8940    12.4874 </r>
       <r>   -10.9781    17.1383    13.8975 </r>
       <r>   -10.8958     1.2455    13.9999 </r>
       <r>   -10.8135     0.0033    14.0002 </r>
       <r>   -10.7313     1.9774    14.1629 </r>
       <r>   -10.6490    18.0566    15.6485 </r>
       <r>   -10.5667     4.2593    15.9989 </r>
       <r>   -10.4845     0.0136    16.0000 </r>
       <r>   -10.4022     0.0000    16.0000 </r>
       <r>   -10.3199     0.0019    16.0002 </r>
       <r>   -10.2376     1.7644    16.1453 </r>
       <r>   -10.1554    17.8770    17.6161 </r>
       <r>   -10.0731     4.6492    17.9986 </r>
       <r>    -9.9908     0.0168    18.0000 </r>
       <r>    -9.9085     0.0000    18.0000 </r>
       <r>    -9.8263     0.0013    18.0001 </r>
       <r>    -9.7440     1.4540    18.1197 </r>
       <r>    -9.6617    17.4983    19.5594 </r>
       <r>    -9.5795     5.3321    19.9981 </r>
       <r>    -9.4972     0.0237    20.0000 </r>
       <r>    -9.4149     0.0000    20.0000 </r>
       <r>    -9.3326     0.0000    20.0000 </r>
       <r>    -9.2504     0.0000    20.0000 </r>
       <r>    -9.1681     0.0000    20.0000 </r>
       <r>    -9.0858     0.0000    20.0000 </r>
       <r>    -9.0035     0.0000    20.0000 </r>
       <r>    -8.9213     0.0000    20.0000 </r>
       <r>    -8.8390     0.0218    20.0018 </r>
       <r>    -8.7567     5.1629    20.4266 </r>
       <r>    -8.6744    17.5994    21.8745 </r>
       <r>    -8.5922     2.5936    22.0879 </r>
       <r>    -8.5099    16.7436    23.4654 </r>
       <r>    -8.4276     6.4584    23.9968 </r>
       <r>    -8.3454     0.0389    24.0000 </r>
       <r>    -8.2631     0.0340    24.0028 </r>
       <r>    -8.1808     6.1395    24.5079 </r>
       <r>    -8.0985    17.0856    25.9136 </r>
       <r>    -8.0163    10.6576    26.7904 </r>
       <r>    -7.9340    14.2246    27.9607 </r>
       <r>    -7.8517     0.4772    28.0000 </r>
       <r>    -7.7694     0.0001    28.0000 </r>
       <r>    -7.6872     0.0001    28.0000 </r>
       <r>    -7.6049     0.4888    28.0402 </r>
       <r>    -7.5226    14.3055    29.2172 </r>
       <r>    -7.4404     9.4024    29.9908 </r>
       <r>    -7.3581     0.1124    30.0000 </r>
       <r>    -7.2758     0.0000    30.0000 </r>
       <r>    -7.1935     0.0000    30.0000 </r>
       <r>    -7.1113     0.0000    30.0000 </r>
       <r>    -7.0290     0.0000    30.0000 </r>
       <r>    -6.9467     0.0000    30.0000 </r>
       <r>    -6.8644     0.0000    30.0000 </r>
       <r>    -6.7822     0.0000    30.0000 </r>
       <r>    -6.6999     0.0000    30.0000 </r>
       <r>    -6.6176     0.0000    30.0000 </r>
       <r>    -6.5354     0.0000    30.0000 </r>
       <r>    -6.4531     0.0000    30.0000 </r>
       <r>    -6.3708     0.0000    30.0000 </r>
       <r>    -6.2885     0.0000    30.0000 </r>
       <r>    -6.2063     0.0000    30.0000 </r>
       <r>    -6.1240     0.0000    30.0000 </r>
       <r>    -6.0417     0.0000    30.0000 </r>
       <r>    -5.9594     0.0000    30.0000 </r>
       <r>    -5.8772     0.0000    30.0000 </r>
       <r>    -5.7949     0.0000    30.0000 </r>
       <r>    -5.7126     0.2296    30.0189 </r>
       <r>    -5.6303    11.7251    30.9836 </r>
       <r>    -5.5481    12.0983    31.9789 </r>
       <r>    -5.4658     0.2563    32.0000 </r>
       <r>    -5.3835     0.0000    32.0000 </r>
       <r>    -5.3013     0.0000    32.0000 </r>
       <r>    -5.2190     0.0000    32.0000 </r>
       <r>    -5.1367     0.0000    32.0000 </r>
       <r>    -5.0544     0.0000    32.0000 </r>
       <r>    -4.9722     0.0000    32.0000 </r>
       <r>    -4.8899     0.0000    32.0000 </r>
       <r>    -4.8076     0.0000    32.0000 </r>
       <r>    -4.7253     0.0000    32.0000 </r>
       <r>    -4.6431     0.0000    32.0000 </r>
       <r>    -4.5608     0.0000    32.0000 </r>
       <r>    -4.4785     0.0000    32.0000 </r>
       <r>    -4.3963     0.0000    32.0000 </r>
       <r>    -4.3140     0.0000    32.0000 </r>
       <r>    -4.2317     0.0000    32.0000 </r>
       <r>    -4.1494     0.0000    32.0000 </r>
       <r>    -4.0672     0.0000    32.0000 </r>
       <r>    -3.9849     0.0000    32.0000 </r>
       <r>    -3.9026     0.0000    32.0000 </r>
       <r>    -3.8203     0.0000    32.0000 </r>
       <r>    -3.7381     0.0000    32.0000 </r>
       <r>    -3.6558     0.0000    32.0000 </r>
       <r>    -3.5735     0.0000    32.0000 </r>
       <r>    -3.4913     0.0000    32.0000 </r>
       <r>    -3.4090     0.0000    32.0000 </r>
       <r>    -3.3267     0.0000    32.0000 </r>
       <r>    -3.2444     0.0000    32.0000 </r>
       <r>    -3.1622     0.0000    32.0000 </r>
       <r>    -3.0799     0.0000    32.0000 </r>
       <r>    -2.9976     0.0000    32.0000 </r>
       <r>    -2.9153     0.0000    32.0000 </r>
       <r>    -2.8331     0.0000    32.0000 </r>
       <r>    -2.7508     0.0000    32.0000 </r>
       <r>    -2.6685     0.0000    32.0000 </r>
       <r>    -2.5862     0.0000    32.0000 </r>
       <r>    -2.5040     0.0000    32.0000 </r>
       <r>    -2.4217     0.0000    32.0000 </r>
       <r>    -2.3394     0.0000    32.0000 </r>
       <r>    -2.2572     0.0000    32.0000 </r>
       <r>    -2.1749     0.0000    32.0000 </r>
       <r>    -2.0926     0.0000    32.0000 </r>
       <r>    -2.0103     0.0000    32.0000 </r>
       <r>    -1.9281     0.0000    32.0000 </r>
       <r>    -1.8458     0.0000    32.0000 </r>
       <r>    -1.7635     0.0000    32.0000 </r>
       <r>    -1.6812     0.0000    32.0000 </r>
       <r>    -1.5990     0.0000    32.0000 </r>
       <r>    -1.5167     0.0000    32.0000 </r>
       <r>    -1.4344     0.0000    32.0000 </r>
       <r>    -1.3522     0.0000    32.0000 </r>
       <r>    -1.2699     0.0000    32.0000 </r>
       <r>    -1.1876     0.0000    32.0000 </r>
       <r>    -1.1053     0.0000    32.0000 </r>
       <r>    -1.0231     0.0000    32.0000 </r>
       <r>    -0.9408     0.0000    32.0000 </r>
       <r>    -0.8585     0.0000    32.0000 </r>
       <r>    -0.7762     0.0000    32.0000 </r>
       <r>    -0.6940     0.1780    32.0146 </r>
       <r>    -0.6117    10.8732    32.9092 </r>
       <r>    -0.5294    12.9312    33.9731 </r>
       <r>    -0.4471     0.3270    34.0000 </r>
       <r>    -0.3649     0.3850    34.0317 </r>
       <r>    -0.2826    13.4921    35.1417 </r>
       <r>    -0.2003    10.2839    35.9878 </r>
       <r>    -0.1181     0.8647    36.0589 </r>
       <r>    -0.0358    16.3059    37.4005 </r>
       <r>     0.0465    25.0114    39.4582 </r>
       <r>     0.1288    25.1938    41.5310 </r>
       <r>     0.2110     5.8648    42.0135 </r>
       <r>     0.2933    11.2719    42.9409 </r>
       <r>     0.3756    22.6760    44.8065 </r>
       <r>     0.4579    21.9759    46.6145 </r>
       <r>     0.5401    18.0934    48.1031 </r>
       <r>     0.6224    33.5461    50.8631 </r>
       <r>     0.7047    31.7394    53.4744 </r>
       <r>     0.7869    11.1842    54.3945 </r>
       <r>     0.8692    17.8286    55.8614 </r>
       <r>     0.9515     1.6835    55.9999 </r>
       <r>     1.0338     0.0017    56.0000 </r>
       <r>     1.1160     0.0000    56.0000 </r>
       <r>     1.1983     0.0000    56.0000 </r>
       <r>     1.2806     0.0000    56.0000 </r>
       <r>     1.3629     0.0000    56.0000 </r>
       <r>     1.4451     0.0000    56.0000 </r>
       <r>     1.5274     0.0000    56.0000 </r>
       <r>     1.6097     0.0000    56.0000 </r>
       <r>     1.6919     0.0000    56.0000 </r>
       <r>     1.7742     0.0000    56.0000 </r>
       <r>     1.8565     0.0000    56.0000 </r>
       <r>     1.9388     0.0000    56.0000 </r>
      </set>
     </set>
    </array>
   </total>
  </dos>
 </calculation>
 <structure name="finalpos" >
  <crystal>
   <varray name="basis" >
    <v>      21.69110000       0.00000000       0.00000000 </v>
    <v>       0.00000000      17.18710000       0.00000000 </v>
    <v>       0.00000000       0.00000000      16.80880000 </v>
   </varray>
   <i name="volume">   6266.44006333 </i>
   <varray name="rec_basis" >
    <v>       0.04610186       0.00000000       0.00000000 </v>
    <v>       0.00000000       0.05818317       0.00000000 </v>
    <v>       0.00000000       0.00000000       0.05949265 </v>
   </varray>
  </crystal>
  <varray name="positions" >
   <v>       0.37772009       0.48352733       0.51205527 </v>
   <v>       0.49729526       0.47279503       0.49208386 </v>
   <v>       0.55667312       0.52324024       0.50656488 </v>
   <v>       0.43772894       0.52305363       0.48900822 </v>
   <v>       0.61584365       0.47614854       0.49860870 </v>
   <v>       0.50287429       0.43378908       0.44199470 </v>
   <v>       0.49074438       0.43552789       0.54734129 </v>
   <v>       0.55408877       0.53941382       0.57069780 </v>
   <v>       0.56033223       0.58064361       0.47210529 </v>
   <v>       0.44298255       0.56995219       0.53054269 </v>
   <v>       0.43194902       0.55183758       0.43012793 </v>
   <v>       0.65565548       0.50968435       0.51910859 </v>
   <v>       0.61232786       0.42202771       0.52975145 </v>
   <v>       0.62619424       0.46258631       0.43603994 </v>
   <v>       0.37699513       0.47630127       0.57359050 </v>
   <v>       0.38583064       0.42716232       0.49644765 </v>
  </varray>
 </structure>
</modeling>
