 vasp.6.3.2 27Jun22 (build Oct 05 2023 17:59:42) gamma-only                     
  
 executed on             LinuxIFC date 2024.04.05  18:28:44
 running on   18 total cores
 each image running on    2 cores
 distrk:  each k-point on    2 cores,    1 groups
 distr:  one band on NCORE=   1 cores,    2 groups


--------------------------------------------------------------------------------------------------------


 INCAR:
   ENCUT = 400.000000
   SIGMA = 0.050000
   ALGO = Fast
   GGA = PE
   ISMEAR = 0
   ISPIN = 1
   IVDW = 11
   LCHARG = .FALSE.
   LWAVE = .FALSE.
   EDIFF = 1E-05
   EDIFFG = -0.05
   NSW = 5000
   IBRION = 1
   SPRING = -5
   POTIM = 0.1
   PREC = NORMAL
   IMAGES = 9
   LCLIMB = .TRUE.

 POTCAR:    PAW_PBE C 08Apr2002                   
 POTCAR:    PAW_PBE H 15Jun2001                   
 POTCAR:    PAW_PBE N 08Apr2002                   
 POTCAR:    PAW_PBE C 08Apr2002                   
   SHA256 =  253f7b50bb8d59471dbedb8285d89021f4a42ed1a2c5d38a03a736e69125dd95 C/POTCAR              
   COPYR  = (c) Copyright 08Apr2002 Georg Kresse                                                    
   COPYR  = This file is part of the software VASP. Any use, copying, and all other rights are regul
   COPYR  = If you do not have a valid VASP license, you may not use, copy or distribute this file. 
   VRHFIN =C: s2p2                                                                                  
   LEXCH  = PE                                                                                      
   EATOM  =   147.1560 eV,   10.8157 Ry                                                             
                                                                                                    
   TITEL  = PAW_PBE C 08Apr2002                                                                     
   LULTRA =        F    use ultrasoft PP ?                                                          
   IUNSCR =        1    unscreen: 0-lin 1-nonlin 2-no                                               
   RPACOR =    1.200    partial core radius                                                         
   POMASS =   12.011; ZVAL   =    4.000    mass and valenz                                          
   RCORE  =    1.500    outmost cutoff radius                                                       
   RWIGS  =    1.630; RWIGS  =    0.863    wigner-seitz radius (au A)                               
   ENMAX  =  400.000; ENMIN  =  300.000 eV                                                          
   ICORE  =        2    local potential                                                             
   LCOR   =        T    correct aug charges                                                         
   LPAW   =        T    paw PP                                                                      
   EAUG   =  644.873                                                                                
   DEXC   =    0.000                                                                                
   RMAX   =    1.529    core radius for proj-oper                                                   
   RAUG   =    1.300    factor for augmentation sphere                                              
   RDEP   =    1.501    radius for radial grids                                                     
   RDEPT  =    1.300    core radius for aug-charge                                                  
                                                                                                    
   Atomic configuration                                                                             
    4 entries                                                                                       
     n  l   j            E        occ.                                                              
     1  0  0.50      -273.3789   2.0000                                                             
     2  0  0.50       -13.7508   2.0000                                                             
     2  1  0.50        -5.2854   2.0000                                                             
     3  2  1.50        -5.4423   0.0000                                                             
   Description                                                                                      
     l       E           TYP  RCUT    TYP  RCUT                                                     
     0    -13.7508458     23  1.200                                                                 
     0     -8.2022199     23  1.200                                                                 
     1     -5.2854383     23  1.500                                                                 
     1     34.0145650     23  1.500                                                                 
     2     -5.4423304      7  1.500                                                                 
  local pseudopotential read in
  partial core-charges read in
  partial kinetic energy density read in
  atomic valenz-charges read in
  non local Contribution for L=           0  read in
    real space projection operators read in
  non local Contribution for L=           0  read in
    real space projection operators read in
  non local Contribution for L=           1  read in
    real space projection operators read in
  non local Contribution for L=           1  read in
    real space projection operators read in
    PAW grid and wavefunctions read in
 
   number of l-projection  operators is LMAX  =           4
   number of lm-projection operators is LMMAX =           8
 
 POTCAR:    PAW_PBE H 15Jun2001                   
   SHA256 =  030f79b5d3ab3cf0e668861823c8fb652ff669f3e15e46930bd03bfd63a607b6 H/POTCAR              
   COPYR  = (c) Copyright 15Jun2001 Georg Kresse                                                    
   COPYR  = This file is part of the software VASP. Any use, copying, and all other rights are regul
   COPYR  = If you do not have a valid VASP license, you may not use, copy or distribute this file. 
   VRHFIN =H: ultrasoft test                                                                        
   LEXCH  = PE                                                                                      
   EATOM  =    12.4884 eV,    0.9179 Ry                                                             
                                                                                                    
   TITEL  = PAW_PBE H 15Jun2001                                                                     
   LULTRA =        F    use ultrasoft PP ?                                                          
   IUNSCR =        0    unscreen: 0-lin 1-nonlin 2-no                                               
   RPACOR =    0.000    partial core radius                                                         
   POMASS =    1.000; ZVAL   =    1.000    mass and valenz                                          
   RCORE  =    1.100    outmost cutoff radius                                                       
   RWIGS  =    0.700; RWIGS  =    0.370    wigner-seitz radius (au A)                               
   ENMAX  =  250.000; ENMIN  =  200.000 eV                                                          
   RCLOC  =    0.701    cutoff for local pot                                                        
   LCOR   =        T    correct aug charges                                                         
   LPAW   =        T    paw PP                                                                      
   EAUG   =  400.000                                                                                
   RMAX   =    1.123    core radius for proj-oper                                                   
   RAUG   =    1.200    factor for augmentation sphere                                              
   RDEP   =    1.112    radius for radial grids                                                     
   RDEPT  =    0.926    core radius for aug-charge                                                  
                                                                                                    
   Atomic configuration                                                                             
    2 entries                                                                                       
     n  l   j            E        occ.                                                              
     1  0  0.50        -6.4927   1.0000                                                             
     2  1  0.50        -3.4015   0.0000                                                             
   Description                                                                                      
     l       E           TYP  RCUT    TYP  RCUT                                                     
     0     -6.4927494     23  1.100                                                                 
     0      6.8029130     23  1.100                                                                 
     1     -4.0817478     23  1.100                                                                 
  local pseudopotential read in
  atomic valenz-charges read in
  non local Contribution for L=           0  read in
    real space projection operators read in
  non local Contribution for L=           0  read in
    real space projection operators read in
  non local Contribution for L=           1  read in
    real space projection operators read in
    PAW grid and wavefunctions read in
 
   number of l-projection  operators is LMAX  =           3
   number of lm-projection operators is LMMAX =           5
 
 POTCAR:    PAW_PBE N 08Apr2002                   
   SHA256 =  e053789ff3a61a86a1b75d8a110fcc91f86041011e7b0817c7c99e4e8a6349d7 N/POTCAR              
   COPYR  = (c) Copyright 08Apr2002 Georg Kresse                                                    
   COPYR  = This file is part of the software VASP. Any use, copying, and all other rights are regul
   COPYR  = If you do not have a valid VASP license, you may not use, copy or distribute this file. 
   VRHFIN =N: s2p3                                                                                  
   LEXCH  = PE                                                                                      
   EATOM  =   264.5486 eV,   19.4438 Ry                                                             
                                                                                                    
   TITEL  = PAW_PBE N 08Apr2002                                                                     
   LULTRA =        F    use ultrasoft PP ?                                                          
   IUNSCR =        1    unscreen: 0-lin 1-nonlin 2-no                                               
   RPACOR =    1.200    partial core radius                                                         
   POMASS =   14.001; ZVAL   =    5.000    mass and valenz                                          
   RCORE  =    1.500    outmost cutoff radius                                                       
   RWIGS  =    1.400; RWIGS  =    0.741    wigner-seitz radius (au A)                               
   ENMAX  =  400.000; ENMIN  =  300.000 eV                                                          
   ICORE  =        2    local potential                                                             
   LCOR   =        T    correct aug charges                                                         
   LPAW   =        T    paw PP                                                                      
   EAUG   =  627.112                                                                                
   DEXC   =    0.000                                                                                
   RMAX   =    1.529    core radius for proj-oper                                                   
   RAUG   =    1.300    factor for augmentation sphere                                              
   RDEP   =    1.514    radius for radial grids                                                     
   RDEPT  =    1.338    core radius for aug-charge                                                  
                                                                                                    
   Atomic configuration                                                                             
    4 entries                                                                                       
     n  l   j            E        occ.                                                              
     1  0  0.50      -384.7179   2.0000                                                             
     2  0  0.50       -18.5828   2.0000                                                             
     2  1  0.50        -7.0898   3.0000                                                             
     3  2  1.50        -6.8029   0.0000                                                             
   Description                                                                                      
     l       E           TYP  RCUT    TYP  RCUT                                                     
     0    -18.5828119     23  1.200                                                                 
     0    -13.5018863     23  1.200                                                                 
     1     -7.0897853     23  1.500                                                                 
     1      9.5240782     23  1.500                                                                 
     2     -6.8029130      7  1.500                                                                 
  local pseudopotential read in
  partial core-charges read in
  partial kinetic energy density read in
  atomic valenz-charges read in
  non local Contribution for L=           0  read in
    real space projection operators read in
  non local Contribution for L=           0  read in
    real space projection operators read in
  non local Contribution for L=           1  read in
    real space projection operators read in
  non local Contribution for L=           1  read in
    real space projection operators read in
    PAW grid and wavefunctions read in
 
   number of l-projection  operators is LMAX  =           4
   number of lm-projection operators is LMMAX =           8
 
 -----------------------------------------------------------------------------
|                                                                             |
|               ----> ADVICE to this user running VASP <----                  |
|                                                                             |
|     You have a (more or less) 'large supercell' and for larger cells it     |
|     might be more efficient to use real-space projection operators.         |
|     Therefore, try LREAL= Auto in the INCAR file.                           |
|     Mind: For very accurate calculation, you might also keep the            |
|     reciprocal projection scheme (i.e. LREAL=.FALSE.).                      |
|                                                                             |
 -----------------------------------------------------------------------------

  PAW_PBE C 08Apr2002                   :
 energy of atom  1       EATOM= -147.1560
 kinetic energy error for atom=    0.0288 (will be added to EATOM!!)
  PAW_PBE H 15Jun2001                   :
 energy of atom  2       EATOM=  -12.4884
 kinetic energy error for atom=    0.0098 (will be added to EATOM!!)
  PAW_PBE N 08Apr2002                   :
 energy of atom  3       EATOM= -264.5486
 kinetic energy error for atom=    0.0736 (will be added to EATOM!!)
 
 
 POSCAR:  C  H  N
  positions in cartesian coordinates
  No initial velocities read in
 exchange correlation table for  LEXCH =        8
   RHO(1)=    0.500       N(1)  =     2000
   RHO(2)=  100.500       N(2)  =     4000

 VTST: version 4.1, (05/19/21)

 CHAIN: initializing optimizer
 
 OPT: Using VASP QUASI-newton optimizer
 CHAIN: Read ICHAIN            0
 CHAIN: Running the NEB
 NEB:          SPRING     -5.000000
 NEB:          LCLIMB      T
 NEB:     LTANGENTOLD      F
 NEB:           LDNEB      F
 NEB:        LDNEBORG      F
 NEB:        LNEBCELL      F
 NEB:          EFIRST      0.000000
 NEB:           ELAST      0.000000
 
 POSCAR:  C  H  N
  positions in cartesian coordinates
  No initial velocities read in
 
 POSCAR:  C  H  N
  positions in cartesian coordinates
  No initial velocities read in
 
 POSCAR:  C  H  N
  positions in cartesian coordinates
  No initial velocities read in
 
 POSCAR:  C  H  N
  positions in cartesian coordinates
  No initial velocities read in
 


--------------------------------------------------------------------------------------------------------


 ion  position               nearest neighbor table
   1  0.342  0.438  0.568-   8 1.09   2 1.34   4 1.49
   2  0.339  0.525  0.572-  11 1.09   1 1.34   3 1.49
   3  0.416  0.582  0.560-  13 1.10  12 1.10   2 1.49   6 1.53
   4  0.423  0.390  0.543-   9 1.10  10 1.10   1 1.49   5 1.54
   5  0.505  0.446  0.556-  15 1.09  14 1.09   6 1.53   4 1.54
   6  0.489  0.534  0.512-  16 1.09   7 1.45   5 1.53   3 1.53
   7  0.568  0.586  0.509-  17 1.17   6 1.45
   8  0.284  0.400  0.579-   1 1.09
   9  0.427  0.329  0.578-   4 1.10
  10  0.422  0.372  0.474-   4 1.10
  11  0.278  0.557  0.587-   2 1.09
  12  0.443  0.602  0.623-   3 1.10
  13  0.399  0.642  0.527-   3 1.10
  14  0.562  0.414  0.529-   5 1.09
  15  0.518  0.457  0.624-   5 1.09
  16  0.468  0.522  0.445-   6 1.09
  17  0.631  0.627  0.508-   7 1.17
 
  LATTYP: Found a simple cubic cell.
 ALAT       =    15.4022502899
  
  Lattice vectors:
  
 A1 = (  15.4022502899,   0.0000000000,   0.0000000000)
 A2 = (   0.0000000000,  15.4022502899,   0.0000000000)
 A3 = (   0.0000000000,   0.0000000000,  15.4022502899)


Analysis of symmetry for initial positions (statically):
=====================================================================
 Subroutine PRICEL returns:
 Original cell was already a primitive cell.
 

 Routine SETGRP: Setting up the symmetry group for a 
 simple cubic supercell.


 Subroutine GETGRP returns: Found  1 space group operations
 (whereof  1 operations were pure point group operations)
 out of a pool of 48 trial point group operations.


The static configuration has the point symmetry C_1 .


Analysis of symmetry for dynamics (positions and initial velocities):
=====================================================================
 Subroutine PRICEL returns:
 Original cell was already a primitive cell.
 

 Routine SETGRP: Setting up the symmetry group for a 
 simple cubic supercell.


 Subroutine GETGRP returns: Found  1 space group operations
 (whereof  1 operations were pure point group operations)
 out of a pool of 48 trial point group operations.


The dynamic configuration has the point symmetry C_1 .


 Subroutine INISYM returns: Found  1 space group operations
 (whereof  1 operations are pure point group operations),
 and found     1 'primitive' translations


----------------------------------------------------------------------------------------

                                     Primitive cell                                     

  volume of cell :    3653.8653

  direct lattice vectors                    reciprocal lattice vectors
    15.402250290  0.000000000  0.000000000     0.064925578  0.000000000  0.000000000
     0.000000000 15.402250290  0.000000000     0.000000000  0.064925578  0.000000000
     0.000000000  0.000000000 15.402250290     0.000000000  0.000000000  0.064925578

  length of vectors
    15.402250290 15.402250290 15.402250290     0.064925578  0.064925578  0.064925578

  position of ions in fractional coordinates (direct lattice)
     0.342469014  0.437963704  0.567560268
     0.338928342  0.524794664  0.571593796
     0.416257523  0.581800859  0.560194530
     0.422937194  0.390375741  0.542689547
     0.504630452  0.446160575  0.555630179
     0.489114582  0.533857378  0.512225433
     0.567796681  0.585643774  0.508809204
     0.283929174  0.400107883  0.578974066
     0.427298903  0.328592804  0.577853195
     0.421941517  0.372485688  0.473669446
     0.277639733  0.556618911  0.586721642
     0.442764003  0.602440231  0.622977290
     0.399080051  0.642291373  0.526853505
     0.561974583  0.414079656  0.528533926
     0.517685917  0.457147960  0.624319508
     0.468325776  0.521992868  0.445330758
     0.631312248  0.626811950  0.507845418

  ion indices of the primitive-cell ions
   primitive index   ion index
                 1           1
                 2           2
                 3           3
                 4           4
                 5           5
                 6           6
                 7           7
                 8           8
                 9           9
                10          10
                11          11
                12          12
                13          13
                14          14
                15          15
                16          16
                17          17

----------------------------------------------------------------------------------------

 
 
 KPOINTS: KPOINTS created by Atomic Simulation Env

Automatic generation of k-mesh.
 Grid dimensions read from file:
 generate k-points for:    1    1    1

 Generating k-lattice:

  Cartesian coordinates                     Fractional coordinates (reciprocal lattice)
     0.064925578  0.000000000  0.000000000     1.000000000  0.000000000  0.000000000
     0.000000000  0.064925578  0.000000000     0.000000000  1.000000000  0.000000000
     0.000000000  0.000000000  0.064925578     0.000000000  0.000000000  1.000000000

  Length of vectors
     0.064925578  0.064925578  0.064925578

  Shift w.r.t. Gamma in fractional coordinates (k-lattice)
     0.000000000  0.000000000  0.000000000

 
 Subroutine IBZKPT returns following result:
 ===========================================
 
 Found      1 irreducible k-points:
 
 Following reciprocal coordinates:
            Coordinates               Weight
  0.000000  0.000000  0.000000      1.000000
 
 Following cartesian coordinates:
            Coordinates               Weight
  0.000000  0.000000  0.000000      1.000000
 


--------------------------------------------------------------------------------------------------------




 Dimension of arrays:
   k-points           NKPTS =      1   k-points in BZ     NKDIM =      1   number of bands    NBANDS=     30
   number of dos      NEDOS =    301   number of ions     NIONS =     17
   non local maximal  LDIM  =      4   non local SUM 2l+1 LMDIM =      8
   total plane-waves  NPLWV = 512000
   max r-space proj   IRMAX =      1   max aug-charges    IRDMAX=   1924
   dimension x,y,z NGX =    80 NGY =   80 NGZ =   80
   dimension x,y,z NGXF=   160 NGYF=  160 NGZF=  160
   support grid    NGXF=   160 NGYF=  160 NGZF=  160
   ions per type =               7   9   1
   NGX,Y,Z   is equivalent  to a cutoff of   8.63,  8.63,  8.63 a.u.
   NGXF,Y,Z  is equivalent  to a cutoff of  17.27, 17.27, 17.27 a.u.

 SYSTEM =  unknown system                          
 POSCAR =   C  H  N                                

 Startparameter for this run:
   NWRITE =      2    write-flag & timer
   PREC   = normal    normal or accurate (medium, high low for compatibility)
   ISTART =      0    job   : 0-new  1-cont  2-samecut
   ICHARG =      2    charge: 1-file 2-atom 10-const
   ISPIN  =      1    spin polarized calculation?
   LNONCOLLINEAR =      F non collinear calculations
   LSORBIT =      F    spin-orbit coupling
   INIWAV =      1    electr: 0-lowe 1-rand  2-diag
   LASPH  =      F    aspherical Exc in radial PAW
 Electronic Relaxation 1
   ENCUT  =  400.0 eV  29.40 Ry    5.42 a.u.  25.12 25.12 25.12*2*pi/ulx,y,z
   ENINI  =  400.0     initial cutoff
   ENAUG  =  644.9 eV  augmentation charge cutoff
   NELM   =     60;   NELMIN=  2; NELMDL= -5     # of ELM steps 
   EDIFF  = 0.1E-04   stopping-criterion for ELM
   LREAL  =      F    real-space projection
   NLSPLINE    = F    spline interpolate recip. space projectors
   LCOMPAT=      F    compatible to vasp.4.4
   GGA_COMPAT  = T    GGA compatible to vasp.4.4-vasp.4.6
   LMAXPAW     = -100 max onsite density
   LMAXMIX     =    2 max onsite mixed and CHGCAR
   VOSKOWN=      0    Vosko Wilk Nusair interpolation
   ROPT   =    0.00000   0.00000   0.00000
 Ionic relaxation
   EDIFFG = -.5E-01   stopping-criterion for IOM
   NSW    =   5000    number of steps for IOM
   NBLOCK =      1;   KBLOCK =   5000    inner block; outer block 
   IBRION =      1    ionic relax: 0-MD 1-quasi-New 2-CG
   NFREE  =      0    steps in history (QN), initial steepest desc. (CG)
   ISIF   =      2    stress and relaxation
   IWAVPR =     11    prediction:  0-non 1-charg 2-wave 3-comb
   ISYM   =      2    0-nonsym 1-usesym 2-fastsym
   LCORR  =      T    Harris-Foulkes like correction to forces

   POTIM  = 0.1000    time-step for ionic-motion
   TEIN   =    0.0    initial temperature
   TEBEG  =    0.0;   TEEND  =   0.0 temperature during run
   SMASS  =  -3.00    Nose mass-parameter (am)
   estimated Nose-frequenzy (Omega)   =  0.10E-29 period in steps = 0.63E+47 mass=  -0.542E-26a.u.
   SCALEE = 1.0000    scale energy and forces
   NPACO  =    256;   APACO  = 10.0  distance and # of slots for P.C.
   PSTRESS=    0.0 pullay stress

  Mass of Ions in am
   POMASS =  12.01  1.00 14.00
  Ionic Valenz
   ZVAL   =   4.00  1.00  5.00
  Atomic Wigner-Seitz radii
   RWIGS  =  -1.00 -1.00 -1.00
  virtual crystal weights 
   VCA    =   1.00  1.00  1.00
   NELECT =      42.0000    total number of electrons
   NUPDOWN=      -1.0000    fix difference up-down

 DOS related values:
   EMIN   =  10.00;   EMAX   =-10.00  energy-range for DOS
   EFERMI =   0.00
   ISMEAR =     0;   SIGMA  =   0.05  broadening in eV -4-tet -1-fermi 0-gaus

 Electronic relaxation 2 (details)
   IALGO  =     68    algorithm
   LDIAG  =      T    sub-space diagonalisation (order eigenvalues)
   LSUBROT=      F    optimize rotation matrix (better conditioning)
   TURBO    =      0    0=normal 1=particle mesh
   IRESTART =      0    0=no restart 2=restart with 2 vectors
   NREBOOT  =      0    no. of reboots
   NMIN     =      0    reboot dimension
   EREF     =   0.00    reference energy to select bands
   IMIX   =      4    mixing-type and parameters
     AMIX     =   0.40;   BMIX     =  1.00
     AMIX_MAG =   1.60;   BMIX_MAG =  1.00
     AMIN     =   0.10
     WC   =   100.;   INIMIX=   1;  MIXPRE=   1;  MAXMIX= -45

 Intra band minimization:
   WEIMIN = 0.0010     energy-eigenvalue tresh-hold
   EBREAK =  0.83E-07  absolut break condition
   DEPER  =   0.30     relativ break condition  

   TIME   =   0.40     timestep for ELM

  volume/ion in A,a.u.               =     214.93      1450.44
  Fermi-wavevector in a.u.,A,eV,Ry     =   0.369465  0.698188  1.857259  0.136505
  Thomas-Fermi vector in A             =   1.296107
 
 Write flags
   LWAVE        =      F    write WAVECAR
   LDOWNSAMPLE  =      F    k-point downsampling of WAVECAR
   LCHARG       =      F    write CHGCAR
   LVTOT        =      F    write LOCPOT, total local potential
   LVHAR        =      F    write LOCPOT, Hartree potential only
   LELF         =      F    write electronic localiz. function (ELF)
   LORBIT       =      0    0 simple, 1 ext, 2 COOP (PROOUT), +10 PAW based schemes


 Dipole corrections
   LMONO  =      F    monopole corrections only (constant potential shift)
   LDIPOL =      F    correct potential (dipole corrections)
   IDIPOL =      0    1-x, 2-y, 3-z, 4-all directions 
   EPSILON=  1.0000000 bulk dielectric constant

 Exchange correlation treatment:
   GGA     =    PE    GGA type
   LEXCH   =     8    internal setting for exchange type
   LIBXC   =     F    Libxc                    
   VOSKOWN =     0    Vosko Wilk Nusair interpolation
   LHFCALC =     F    Hartree Fock is set to
   LHFONE  =     F    Hartree Fock one center treatment
   AEXX    =    0.0000 exact exchange contribution

 Linear response parameters
   LEPSILON=     F    determine dielectric tensor
   LRPA    =     F    only Hartree local field effects (RPA)
   LNABLA  =     F    use nabla operator in PAW spheres
   LVEL    =     F    velocity operator in full k-point grid
   CSHIFT  =0.1000    complex shift for real part using Kramers Kronig
   OMEGAMAX=  -1.0    maximum frequency
   DEG_THRESHOLD= 0.2000000E-02 threshold for treating states as degnerate
   RTIME   =   -0.100 relaxation time in fs
  (WPLASMAI=    0.000 imaginary part of plasma frequency in eV, 0.658/RTIME)
   DFIELD  = 0.0000000 0.0000000 0.0000000 field for delta impulse in time
 
  Optional k-point grid parameters
   LKPOINTS_OPT  =     F    use optional k-point grid
   KPOINTS_OPT_MODE=     1    mode for optional k-point grid
 
 Orbital magnetization related:
   ORBITALMAG=     F  switch on orbital magnetization
   LCHIMAG   =     F  perturbation theory with respect to B field
   DQ        =  0.001000  dq finite difference perturbation B field
   LLRAUG    =     F  two centre corrections for induced B field



--------------------------------------------------------------------------------------------------------


 quasi-Newton-method for relaxation of ions
 charge density and potential will be updated during run
 non-spin polarized calculation
 RMM-DIIS sequential band-by-band and
  variant of blocked Davidson during initial phase
 perform sub-space diagonalisation
    before iterative eigenvector-optimisation
 modified Broyden-mixing scheme, WC =      100.0
 initial mixing is a Kerker type mixing with AMIX =  0.4000 and BMIX =      1.0000
 Hartree-type preconditioning will be used
 using additional bands            9
 reciprocal scheme for non local part
 use partial core corrections
 calculate Harris-corrections to forces 
   (improved forces if not selfconsistent)
 use gradient corrections 
 use of overlap-Matrix (Vanderbilt PP)
 Gauss-broadening in eV      SIGMA  =   0.05


--------------------------------------------------------------------------------------------------------


  energy-cutoff  :      400.00
  volume of cell :     3653.87
      direct lattice vectors                 reciprocal lattice vectors
    15.402250290  0.000000000  0.000000000     0.064925578  0.000000000  0.000000000
     0.000000000 15.402250290  0.000000000     0.000000000  0.064925578  0.000000000
     0.000000000  0.000000000 15.402250290     0.000000000  0.000000000  0.064925578

  length of vectors
    15.402250290 15.402250290 15.402250290     0.064925578  0.064925578  0.064925578


 
 k-points in units of 2pi/SCALE and weight: KPOINTS created by Atomic Simulation Env
   0.00000000  0.00000000  0.00000000       1.000
 
 k-points in reciprocal lattice and weights: KPOINTS created by Atomic Simulation Env
   0.00000000  0.00000000  0.00000000       1.000
 
 position of ions in fractional coordinates (direct lattice) 
   0.34246901  0.43796370  0.56756027
   0.33892834  0.52479466  0.57159380
   0.41625752  0.58180086  0.56019453
   0.42293719  0.39037574  0.54268955
   0.50463045  0.44616057  0.55563018
   0.48911458  0.53385738  0.51222543
   0.56779668  0.58564377  0.50880920
   0.28392917  0.40010788  0.57897407
   0.42729890  0.32859280  0.57785319
   0.42194152  0.37248569  0.47366945
   0.27763973  0.55661891  0.58672164
   0.44276400  0.60244023  0.62297729
   0.39908005  0.64229137  0.52685350
   0.56197458  0.41407966  0.52853393
   0.51768592  0.45714796  0.62431951
   0.46832578  0.52199287  0.44533076
   0.63131225  0.62681195  0.50784542
 
 position of ions in cartesian coordinates  (Angst):
   5.27479347  6.74562659  8.74170530
   5.22025915  8.08301876  8.80383071
   6.41130255  8.96104246  8.62825636
   6.51418451  6.01266487  8.35864023
   7.77244453  6.87187684  8.55795508
   7.53346521  8.22260495  7.88942433
   8.74534660  9.02023198  7.83680672
   4.37314821  6.16256176  8.91750348
   6.58136465  5.06106861  8.90023954
   6.49884886  5.73711780  7.29557535
   4.27627666  8.57318379  9.03683358
   6.81956199  9.27893522  9.59525214
   6.14673083  9.89273248  8.11472954
   8.65567318  6.37775850  8.14061182
   7.97352807  7.04110729  9.61592532
   7.21327082  8.03986480  6.85909579
   9.72362925  9.65431454  7.82196224
 


--------------------------------------------------------------------------------------------------------


 use serial FFT for orbitals x direction half grid
 k-point   1 :   0.0000 0.0000 0.0000  plane waves:   33270

 maximum and minimum number of plane-waves per node :     33270    33270

 maximum number of plane-waves:     33270
 maximum index in each direction: 
   IXMAX=   25   IYMAX=   25   IZMAX=   25
   IXMIN=    0   IYMIN=  -25   IZMIN=  -25


 serial   3D FFT for wavefunctions
 parallel 3D FFT for charge:
    minimum data exchange during FFTs selected (reduces bandwidth)


 total amount of memory used by VASP MPI-rank0   277942. kBytes
=======================================================================

   base      :      30000. kBytes
   nonl-proj :      15437. kBytes
   fftplans  :      71598. kBytes
   grid      :     152883. kBytes
   one-center:         26. kBytes
   wavefun   :       7998. kBytes
 
     INWAV:  cpu time      0.0000: real time      0.0000
 Broyden mixing: mesh for mixing (old mesh)
   NGX = 51   NGY = 51   NGZ = 51
  (NGX  =160   NGY  =160   NGZ  =160)
  gives a total of 132651 points

 initial charge density was supplied:
 charge density of overlapping atoms calculated
 number of electron      42.0000000 magnetization 
 keeping initial charge density in first step


--------------------------------------------------------------------------------------------------------


 Maximum index for augmentation-charges          835 (set IRDMAX)


--------------------------------------------------------------------------------------------------------


 First call to EWALD:  gamma=   0.115
 Maximum number of real-space cells 3x 3x 3
 Maximum number of reciprocal cells 3x 3x 3

    FEWALD:  cpu time      0.0012: real time      0.0012


--------------------------------------- Iteration      1(   1)  ---------------------------------------


    POTLOK:  cpu time      2.1284: real time      2.1289
    SETDIJ:  cpu time      0.0059: real time      0.0059
     EDDAV:  cpu time      3.6804: real time      3.6809
       DOS:  cpu time      0.0005: real time      0.0006
    --------------------------------------------
      LOOP:  cpu time      5.8153: real time      5.8162

 eigenvalue-minimisations  :    76
 total energy-change (2. order) : 0.3364618E+03  (-0.1019320E+04)
 number of electron      42.0000000 magnetization 
 augmentation part       42.0000000 magnetization 

 Free energy of the ion-electron system (eV)
  ---------------------------------------------------
  alpha Z        PSCENC =         2.15216506
  Ewald energy   TEWEN  =      2589.09779196
  -Hartree energ DENC   =     -3524.57520734
  -exchange      EXHF   =         0.00000000
  -V(xc)+E(xc)   XCENC  =       131.55938101
  PAW double counting   =       983.79330320     -989.05002801
  entropy T*S    EENTRO =        -0.02358186
  eigenvalues    EBANDS =      -263.16528373
  atomic energy  EATOM  =      1406.67326350
  Solvation  Ediel_sol  =         0.00000000
  ---------------------------------------------------
  free energy    TOTEN  =       336.46180379 eV

  energy without entropy =      336.48538565  energy(sigma->0) =      336.47359472


--------------------------------------------------------------------------------------------------------




--------------------------------------- Iteration      1(   2)  ---------------------------------------


     EDDAV:  cpu time      4.4820: real time      4.4836
       DOS:  cpu time      0.0005: real time      0.0136
    --------------------------------------------
      LOOP:  cpu time      4.4825: real time      4.4973

 eigenvalue-minimisations  :   104
 total energy-change (2. order) :-0.2934047E+03  (-0.2854014E+03)
 number of electron      42.0000000 magnetization 
 augmentation part       42.0000000 magnetization 

 Free energy of the ion-electron system (eV)
  ---------------------------------------------------
  alpha Z        PSCENC =         2.15216506
  Ewald energy   TEWEN  =      2589.09779196
  -Hartree energ DENC   =     -3524.57520734
  -exchange      EXHF   =         0.00000000
  -V(xc)+E(xc)   XCENC  =       131.55938101
  PAW double counting   =       983.79330320     -989.05002801
  entropy T*S    EENTRO =        -0.00000000
  eigenvalues    EBANDS =      -556.59357270
  atomic energy  EATOM  =      1406.67326350
  Solvation  Ediel_sol  =         0.00000000
  ---------------------------------------------------
  free energy    TOTEN  =        43.05709669 eV

  energy without entropy =       43.05709669  energy(sigma->0) =       43.05709669


--------------------------------------------------------------------------------------------------------




--------------------------------------- Iteration      1(   3)  ---------------------------------------


     EDDAV:  cpu time      3.9055: real time      3.9106
       DOS:  cpu time      0.0005: real time      0.0090
    --------------------------------------------
      LOOP:  cpu time      3.9060: real time      3.9197

 eigenvalue-minimisations  :    80
 total energy-change (2. order) :-0.1428863E+03  (-0.1424565E+03)
 number of electron      42.0000000 magnetization 
 augmentation part       42.0000000 magnetization 

 Free energy of the ion-electron system (eV)
  ---------------------------------------------------
  alpha Z        PSCENC =         2.15216506
  Ewald energy   TEWEN  =      2589.09779196
  -Hartree energ DENC   =     -3524.57520734
  -exchange      EXHF   =         0.00000000
  -V(xc)+E(xc)   XCENC  =       131.55938101
  PAW double counting   =       983.79330320     -989.05002801
  entropy T*S    EENTRO =        -0.00000000
  eigenvalues    EBANDS =      -699.47988470
  atomic energy  EATOM  =      1406.67326350
  Solvation  Ediel_sol  =         0.00000000
  ---------------------------------------------------
  free energy    TOTEN  =       -99.82921531 eV

  energy without entropy =      -99.82921531  energy(sigma->0) =      -99.82921531


--------------------------------------------------------------------------------------------------------




--------------------------------------- Iteration      1(   4)  ---------------------------------------


     EDDAV:  cpu time      4.2460: real time      4.2466
       DOS:  cpu time      0.0003: real time      0.0005
    --------------------------------------------
      LOOP:  cpu time      4.2464: real time      4.2470

 eigenvalue-minimisations  :    88
 total energy-change (2. order) :-0.1428804E+02  (-0.1427041E+02)
 number of electron      42.0000000 magnetization 
 augmentation part       42.0000000 magnetization 

 Free energy of the ion-electron system (eV)
  ---------------------------------------------------
  alpha Z        PSCENC =         2.15216506
  Ewald energy   TEWEN  =      2589.09779196
  -Hartree energ DENC   =     -3524.57520734
  -exchange      EXHF   =         0.00000000
  -V(xc)+E(xc)   XCENC  =       131.55938101
  PAW double counting   =       983.79330320     -989.05002801
  entropy T*S    EENTRO =        -0.00000000
  eigenvalues    EBANDS =      -713.76792156
  atomic energy  EATOM  =      1406.67326350
  Solvation  Ediel_sol  =         0.00000000
  ---------------------------------------------------
  free energy    TOTEN  =      -114.11725218 eV

  energy without entropy =     -114.11725218  energy(sigma->0) =     -114.11725218


--------------------------------------------------------------------------------------------------------




--------------------------------------- Iteration      1(   5)  ---------------------------------------


     EDDAV:  cpu time      3.9054: real time      3.9097
       DOS:  cpu time      0.0003: real time      0.0004
    CHARGE:  cpu time      0.3719: real time      0.3720
    MIXING:  cpu time      0.0770: real time      0.0770
    --------------------------------------------
      LOOP:  cpu time      4.3547: real time      4.3592

 eigenvalue-minimisations  :    80
 total energy-change (2. order) :-0.1604460E+00  (-0.1597995E+00)
 number of electron      42.0000004 magnetization 
 augmentation part        1.2132832 magnetization 

 Broyden mixing:
  rms(total) = 0.16970E+01    rms(broyden)= 0.16965E+01
  rms(prec ) = 0.19600E+01
  weight for this iteration     100.00

 Free energy of the ion-electron system (eV)
  ---------------------------------------------------
  alpha Z        PSCENC =         2.15216506
  Ewald energy   TEWEN  =      2589.09779196
  -Hartree energ DENC   =     -3524.57520734
  -exchange      EXHF   =         0.00000000
  -V(xc)+E(xc)   XCENC  =       131.55938101
  PAW double counting   =       983.79330320     -989.05002801
  entropy T*S    EENTRO =        -0.00000000
  eigenvalues    EBANDS =      -713.92836752
  atomic energy  EATOM  =      1406.67326350
  Solvation  Ediel_sol  =         0.00000000
  ---------------------------------------------------
  free energy    TOTEN  =      -114.27769813 eV

  energy without entropy =     -114.27769813  energy(sigma->0) =     -114.27769813


--------------------------------------------------------------------------------------------------------




--------------------------------------- Iteration      1(   6)  ---------------------------------------


    POTLOK:  cpu time      2.1645: real time      2.1737
    SETDIJ:  cpu time      0.0152: real time      0.0152
    EDDIAG:  cpu time      0.7129: real time      0.7130
  RMM-DIIS:  cpu time      2.8363: real time      2.8366
    ORTHCH:  cpu time      0.0308: real time      0.0308
       DOS:  cpu time      0.0003: real time      0.0003
    CHARGE:  cpu time      0.4264: real time      0.4265
    MIXING:  cpu time      0.0932: real time      0.0932
    --------------------------------------------
      LOOP:  cpu time      6.2796: real time      6.2894

 eigenvalue-minimisations  :    60
 total energy-change (2. order) : 0.8437320E+01  (-0.1156802E+01)
 number of electron      42.0000002 magnetization 
 augmentation part        1.1199686 magnetization 

 Broyden mixing:
  rms(total) = 0.92441E+00    rms(broyden)= 0.92430E+00
  rms(prec ) = 0.10488E+01
  weight for this iteration     100.00

 eigenvalues of (default mixing * dielectric matrix)
  average eigenvalue GAMMA=   1.6669
  1.6669

 Free energy of the ion-electron system (eV)
  ---------------------------------------------------
  alpha Z        PSCENC =         2.15216506
  Ewald energy   TEWEN  =      2589.09779196
  -Hartree energ DENC   =     -3608.13292764
  -exchange      EXHF   =         0.00000000
  -V(xc)+E(xc)   XCENC  =       135.64182339
  PAW double counting   =      1780.64621118    -1786.70929693
  entropy T*S    EENTRO =        -0.00000000
  eigenvalues    EBANDS =      -625.20940871
  atomic energy  EATOM  =      1406.67326350
  Solvation  Ediel_sol  =         0.00000000
  ---------------------------------------------------
  free energy    TOTEN  =      -105.84037818 eV

  energy without entropy =     -105.84037818  energy(sigma->0) =     -105.84037818


--------------------------------------------------------------------------------------------------------




--------------------------------------- Iteration      1(   7)  ---------------------------------------


    POTLOK:  cpu time      2.3076: real time      2.3130
    SETDIJ:  cpu time      0.0213: real time      0.0214
    EDDIAG:  cpu time      0.6556: real time      0.6556
  RMM-DIIS:  cpu time      2.9452: real time      2.9456
    ORTHCH:  cpu time      0.0263: real time      0.0269
       DOS:  cpu time      0.0003: real time      0.0003
    CHARGE:  cpu time      0.3898: real time      0.3898
    MIXING:  cpu time      0.0976: real time      0.0977
    --------------------------------------------
      LOOP:  cpu time      6.4437: real time      6.4502

 eigenvalue-minimisations  :    60
 total energy-change (2. order) : 0.2062279E+01  (-0.1052334E+01)
 number of electron      42.0000002 magnetization 
 augmentation part        1.0660394 magnetization 

 Broyden mixing:
  rms(total) = 0.39981E+00    rms(broyden)= 0.39960E+00
  rms(prec ) = 0.43603E+00
  weight for this iteration     100.00

 eigenvalues of (default mixing * dielectric matrix)
  average eigenvalue GAMMA=   1.4195
  0.9774  1.8616

 Free energy of the ion-electron system (eV)
  ---------------------------------------------------
  alpha Z        PSCENC =         2.15216506
  Ewald energy   TEWEN  =      2589.09779196
  -Hartree energ DENC   =     -3682.53420814
  -exchange      EXHF   =         0.00000000
  -V(xc)+E(xc)   XCENC  =       139.37799741
  PAW double counting   =      2837.28899042    -2843.84342049
  entropy T*S    EENTRO =        -0.00000000
  eigenvalues    EBANDS =      -551.99067905
  atomic energy  EATOM  =      1406.67326350
  Solvation  Ediel_sol  =         0.00000000
  ---------------------------------------------------
  free energy    TOTEN  =      -103.77809933 eV

  energy without entropy =     -103.77809933  energy(sigma->0) =     -103.77809933


--------------------------------------------------------------------------------------------------------




--------------------------------------- Iteration      1(   8)  ---------------------------------------


    POTLOK:  cpu time      2.1444: real time      2.1448
    SETDIJ:  cpu time      0.0263: real time      0.0262
    EDDIAG:  cpu time      0.6116: real time      0.6117
  RMM-DIIS:  cpu time      2.9772: real time      2.9774
    ORTHCH:  cpu time      0.0292: real time      0.0293
       DOS:  cpu time      0.0003: real time      0.0003
    CHARGE:  cpu time      0.4289: real time      0.4290
    MIXING:  cpu time      0.1013: real time      0.1013
    --------------------------------------------
      LOOP:  cpu time      6.3192: real time      6.3201

 eigenvalue-minimisations  :    60
 total energy-change (2. order) : 0.1824885E+00  (-0.7270113E-01)
 number of electron      42.0000002 magnetization 
 augmentation part        1.0528951 magnetization 

 Broyden mixing:
  rms(total) = 0.24237E+00    rms(broyden)= 0.24234E+00
  rms(prec ) = 0.26614E+00
  weight for this iteration     100.00

 eigenvalues of (default mixing * dielectric matrix)
  average eigenvalue GAMMA=   1.7860
  2.7338  1.8243  0.7999

 Free energy of the ion-electron system (eV)
  ---------------------------------------------------
  alpha Z        PSCENC =         2.15216506
  Ewald energy   TEWEN  =      2589.09779196
  -Hartree energ DENC   =     -3693.26001478
  -exchange      EXHF   =         0.00000000
  -V(xc)+E(xc)   XCENC  =       140.11191699
  PAW double counting   =      3168.19261556    -3174.69382551
  entropy T*S    EENTRO =        -0.00000000
  eigenvalues    EBANDS =      -541.86952359
  atomic energy  EATOM  =      1406.67326350
  Solvation  Ediel_sol  =         0.00000000
  ---------------------------------------------------
  free energy    TOTEN  =      -103.59561081 eV

  energy without entropy =     -103.59561081  energy(sigma->0) =     -103.59561081


--------------------------------------------------------------------------------------------------------




--------------------------------------- Iteration      1(   9)  ---------------------------------------


    POTLOK:  cpu time      2.2876: real time      2.2966
    SETDIJ:  cpu time      0.0121: real time      0.0121
    EDDIAG:  cpu time      0.6707: real time      0.6708
  RMM-DIIS:  cpu time      3.1419: real time      3.1423
    ORTHCH:  cpu time      0.0320: real time      0.0405
       DOS:  cpu time      0.0003: real time      0.0003
    CHARGE:  cpu time      0.4626: real time      0.4626
    MIXING:  cpu time      0.0883: real time      0.0883
    --------------------------------------------
      LOOP:  cpu time      6.6955: real time      6.7136

 eigenvalue-minimisations  :    60
 total energy-change (2. order) : 0.1049272E+00  (-0.4720995E-01)
 number of electron      42.0000002 magnetization 
 augmentation part        1.0508225 magnetization 

 Broyden mixing:
  rms(total) = 0.70482E-01    rms(broyden)= 0.70469E-01
  rms(prec ) = 0.92301E-01
  weight for this iteration     100.00

 eigenvalues of (default mixing * dielectric matrix)
  average eigenvalue GAMMA=   1.4730
  2.3032  1.7387  0.9180  0.9320

 Free energy of the ion-electron system (eV)
  ---------------------------------------------------
  alpha Z        PSCENC =         2.15216506
  Ewald energy   TEWEN  =      2589.09779196
  -Hartree energ DENC   =     -3703.67409802
  -exchange      EXHF   =         0.00000000
  -V(xc)+E(xc)   XCENC  =       140.81355550
  PAW double counting   =      3608.57953160    -3614.89429464
  entropy T*S    EENTRO =        -0.00000000
  eigenvalues    EBANDS =      -532.23859858
  atomic energy  EATOM  =      1406.67326350
  Solvation  Ediel_sol  =         0.00000000
  ---------------------------------------------------
  free energy    TOTEN  =      -103.49068361 eV

  energy without entropy =     -103.49068361  energy(sigma->0) =     -103.49068361


--------------------------------------------------------------------------------------------------------




--------------------------------------- Iteration      1(  10)  ---------------------------------------


    POTLOK:  cpu time      2.3025: real time      2.3026
    SETDIJ:  cpu time      0.0060: real time      0.0060
    EDDIAG:  cpu time      0.6091: real time      0.6092
  RMM-DIIS:  cpu time      3.3823: real time      3.4071
    ORTHCH:  cpu time      0.0265: real time      0.0350
       DOS:  cpu time      0.0002: real time      0.0002
    CHARGE:  cpu time      0.3493: real time      0.3493
    MIXING:  cpu time      0.0871: real time      0.0871
    --------------------------------------------
      LOOP:  cpu time      6.7630: real time      6.7966

 eigenvalue-minimisations  :    65
 total energy-change (2. order) : 0.4201269E-02  (-0.7586971E-02)
 number of electron      42.0000002 magnetization 
 augmentation part        1.0489362 magnetization 

 Broyden mixing:
  rms(total) = 0.33752E-01    rms(broyden)= 0.33745E-01
  rms(prec ) = 0.57008E-01
  weight for this iteration     100.00

 eigenvalues of (default mixing * dielectric matrix)
  average eigenvalue GAMMA=   1.5219
  2.1121  2.1121  0.8410  0.9724  1.5719

 Free energy of the ion-electron system (eV)
  ---------------------------------------------------
  alpha Z        PSCENC =         2.15216506
  Ewald energy   TEWEN  =      2589.09779196
  -Hartree energ DENC   =     -3705.96329182
  -exchange      EXHF   =         0.00000000
  -V(xc)+E(xc)   XCENC  =       140.78957605
  PAW double counting   =      3550.44736217    -3556.79768842
  entropy T*S    EENTRO =        -0.00000000
  eigenvalues    EBANDS =      -529.88566084
  atomic energy  EATOM  =      1406.67326350
  Solvation  Ediel_sol  =         0.00000000
  ---------------------------------------------------
  free energy    TOTEN  =      -103.48648234 eV

  energy without entropy =     -103.48648234  energy(sigma->0) =     -103.48648234


--------------------------------------------------------------------------------------------------------




--------------------------------------- Iteration      1(  11)  ---------------------------------------


    POTLOK:  cpu time      2.2601: real time      2.2602
    SETDIJ:  cpu time      0.0058: real time      0.0058
    EDDIAG:  cpu time      0.6255: real time      0.6255
  RMM-DIIS:  cpu time      3.1503: real time      3.1506
    ORTHCH:  cpu time      0.0263: real time      0.0264
       DOS:  cpu time      0.0003: real time      0.0003
    CHARGE:  cpu time      0.3535: real time      0.3536
    MIXING:  cpu time      0.1106: real time      0.1106
    --------------------------------------------
      LOOP:  cpu time      6.5322: real time      6.5328

 eigenvalue-minimisations  :    60
 total energy-change (2. order) :-0.1070479E-01  (-0.1201323E-01)
 number of electron      42.0000002 magnetization 
 augmentation part        1.0471941 magnetization 

 Broyden mixing:
  rms(total) = 0.43132E-01    rms(broyden)= 0.43125E-01
  rms(prec ) = 0.54847E-01
  weight for this iteration     100.00

 eigenvalues of (default mixing * dielectric matrix)
  average eigenvalue GAMMA=   1.4995
  2.4072  2.4072  1.2687  1.2687  0.8419  0.8034

 Free energy of the ion-electron system (eV)
  ---------------------------------------------------
  alpha Z        PSCENC =         2.15216506
  Ewald energy   TEWEN  =      2589.09779196
  -Hartree energ DENC   =     -3714.14270537
  -exchange      EXHF   =         0.00000000
  -V(xc)+E(xc)   XCENC  =       140.83485426
  PAW double counting   =      3503.08701553    -3509.44343485
  entropy T*S    EENTRO =        -0.00000000
  eigenvalues    EBANDS =      -521.75613722
  atomic energy  EATOM  =      1406.67326350
  Solvation  Ediel_sol  =         0.00000000
  ---------------------------------------------------
  free energy    TOTEN  =      -103.49718712 eV

  energy without entropy =     -103.49718712  energy(sigma->0) =     -103.49718712


--------------------------------------------------------------------------------------------------------




--------------------------------------- Iteration      1(  12)  ---------------------------------------


    POTLOK:  cpu time      2.1651: real time      2.1657
    SETDIJ:  cpu time      0.0278: real time      0.0278
    EDDIAG:  cpu time      0.5964: real time      0.5964
  RMM-DIIS:  cpu time      3.1760: real time      3.1763
    ORTHCH:  cpu time      0.0230: real time      0.0319
       DOS:  cpu time      0.0003: real time      0.0003
    CHARGE:  cpu time      0.3342: real time      0.3342
    MIXING:  cpu time      0.0948: real time      0.0948
    --------------------------------------------
      LOOP:  cpu time      6.4176: real time      6.4274

 eigenvalue-minimisations  :    60
 total energy-change (2. order) : 0.4916152E-02  (-0.9978152E-03)
 number of electron      42.0000002 magnetization 
 augmentation part        1.0462320 magnetization 

 Broyden mixing:
  rms(total) = 0.27939E-01    rms(broyden)= 0.27938E-01
  rms(prec ) = 0.37945E-01
  weight for this iteration     100.00

 eigenvalues of (default mixing * dielectric matrix)
  average eigenvalue GAMMA=   1.5441
  2.5081  2.5081  1.4523  1.4523  0.8240  1.0319  1.0319

 Free energy of the ion-electron system (eV)
  ---------------------------------------------------
  alpha Z        PSCENC =         2.15216506
  Ewald energy   TEWEN  =      2589.09779196
  -Hartree energ DENC   =     -3715.26039466
  -exchange      EXHF   =         0.00000000
  -V(xc)+E(xc)   XCENC  =       140.87885804
  PAW double counting   =      3524.85226204    -3531.19301420
  entropy T*S    EENTRO =        -0.00000000
  eigenvalues    EBANDS =      -520.69320271
  atomic energy  EATOM  =      1406.67326350
  Solvation  Ediel_sol  =         0.00000000
  ---------------------------------------------------
  free energy    TOTEN  =      -103.49227097 eV

  energy without entropy =     -103.49227097  energy(sigma->0) =     -103.49227097


--------------------------------------------------------------------------------------------------------




--------------------------------------- Iteration      1(  13)  ---------------------------------------


    POTLOK:  cpu time      2.1537: real time      2.1541
    SETDIJ:  cpu time      0.0189: real time      0.0189
    EDDIAG:  cpu time      0.6317: real time      0.6317
  RMM-DIIS:  cpu time      3.2395: real time      3.2397
    ORTHCH:  cpu time      0.0313: real time      0.0315
       DOS:  cpu time      0.0003: real time      0.0003
    CHARGE:  cpu time      0.3606: real time      0.3606
    MIXING:  cpu time      0.1111: real time      0.1111
    --------------------------------------------
      LOOP:  cpu time      6.5471: real time      6.5478

 eigenvalue-minimisations  :    60
 total energy-change (2. order) :-0.4766310E-02  (-0.2335238E-02)
 number of electron      42.0000002 magnetization 
 augmentation part        1.0458825 magnetization 

 Broyden mixing:
  rms(total) = 0.91750E-02    rms(broyden)= 0.91702E-02
  rms(prec ) = 0.15444E-01
  weight for this iteration     100.00

 eigenvalues of (default mixing * dielectric matrix)
  average eigenvalue GAMMA=   1.6913
  3.8963  2.5015  1.8213  1.3067  1.3067  0.8266  0.9356  0.9356

 Free energy of the ion-electron system (eV)
  ---------------------------------------------------
  alpha Z        PSCENC =         2.15216506
  Ewald energy   TEWEN  =      2589.09779196
  -Hartree energ DENC   =     -3717.42446782
  -exchange      EXHF   =         0.00000000
  -V(xc)+E(xc)   XCENC  =       140.90626152
  PAW double counting   =      3518.25236307    -3524.57860119
  entropy T*S    EENTRO =        -0.00000000
  eigenvalues    EBANDS =      -518.57581339
  atomic energy  EATOM  =      1406.67326350
  Solvation  Ediel_sol  =         0.00000000
  ---------------------------------------------------
  free energy    TOTEN  =      -103.49703728 eV

  energy without entropy =     -103.49703728  energy(sigma->0) =     -103.49703728


--------------------------------------------------------------------------------------------------------




--------------------------------------- Iteration      1(  14)  ---------------------------------------


    POTLOK:  cpu time      2.2187: real time      2.2189
    SETDIJ:  cpu time      0.0264: real time      0.0264
    EDDIAG:  cpu time      0.6444: real time      0.6445
  RMM-DIIS:  cpu time      3.1344: real time      3.1346
    ORTHCH:  cpu time      0.0299: real time      0.0299
       DOS:  cpu time      0.0003: real time      0.0003
    CHARGE:  cpu time      0.3750: real time      0.3750
    MIXING:  cpu time      0.1103: real time      0.1103
    --------------------------------------------
      LOOP:  cpu time      6.5394: real time      6.5400

 eigenvalue-minimisations  :    61
 total energy-change (2. order) :-0.3902292E-02  (-0.4646044E-03)
 number of electron      42.0000002 magnetization 
 augmentation part        1.0453733 magnetization 

 Broyden mixing:
  rms(total) = 0.70392E-02    rms(broyden)= 0.70371E-02
  rms(prec ) = 0.10972E-01
  weight for this iteration     100.00

 eigenvalues of (default mixing * dielectric matrix)
  average eigenvalue GAMMA=   1.8319
  4.3401  2.5529  2.5529  1.7258  1.3151  1.3151  0.8207  0.9321  0.9321

 Free energy of the ion-electron system (eV)
  ---------------------------------------------------
  alpha Z        PSCENC =         2.15216506
  Ewald energy   TEWEN  =      2589.09779196
  -Hartree energ DENC   =     -3719.76229490
  -exchange      EXHF   =         0.00000000
  -V(xc)+E(xc)   XCENC  =       140.95159894
  PAW double counting   =      3520.29276081    -3526.62397991
  entropy T*S    EENTRO =        -0.00000000
  eigenvalues    EBANDS =      -516.28224503
  atomic energy  EATOM  =      1406.67326350
  Solvation  Ediel_sol  =         0.00000000
  ---------------------------------------------------
  free energy    TOTEN  =      -103.50093957 eV

  energy without entropy =     -103.50093957  energy(sigma->0) =     -103.50093957


--------------------------------------------------------------------------------------------------------




--------------------------------------- Iteration      1(  15)  ---------------------------------------


    POTLOK:  cpu time      2.2249: real time      2.2251
    SETDIJ:  cpu time      0.0061: real time      0.0061
    EDDIAG:  cpu time      0.6029: real time      0.6030
  RMM-DIIS:  cpu time      2.8570: real time      2.8658
    ORTHCH:  cpu time      0.0222: real time      0.0222
       DOS:  cpu time      0.0002: real time      0.0002
    CHARGE:  cpu time      0.3715: real time      0.3715
    MIXING:  cpu time      0.1590: real time      0.1590
    --------------------------------------------
      LOOP:  cpu time      6.2439: real time      6.2529

 eigenvalue-minimisations  :    60
 total energy-change (2. order) :-0.1101654E-01  (-0.2832278E-03)
 number of electron      42.0000002 magnetization 
 augmentation part        1.0449485 magnetization 

 Broyden mixing:
  rms(total) = 0.30183E-02    rms(broyden)= 0.30176E-02
  rms(prec ) = 0.49645E-02
  weight for this iteration     100.00

 eigenvalues of (default mixing * dielectric matrix)
  average eigenvalue GAMMA=   1.9160
  6.0073  2.7784  2.1545  1.9483  1.3204  1.3204  0.9819  0.9117  0.9117  0.8257

 Free energy of the ion-electron system (eV)
  ---------------------------------------------------
  alpha Z        PSCENC =         2.15216506
  Ewald energy   TEWEN  =      2589.09779196
  -Hartree energ DENC   =     -3721.09933725
  -exchange      EXHF   =         0.00000000
  -V(xc)+E(xc)   XCENC  =       140.95710253
  PAW double counting   =      3520.57596001    -3526.91243037
  entropy T*S    EENTRO =        -0.00000000
  eigenvalues    EBANDS =      -514.95647155
  atomic energy  EATOM  =      1406.67326350
  Solvation  Ediel_sol  =         0.00000000
  ---------------------------------------------------
  free energy    TOTEN  =      -103.51195611 eV

  energy without entropy =     -103.51195611  energy(sigma->0) =     -103.51195611


--------------------------------------------------------------------------------------------------------




--------------------------------------- Iteration      1(  16)  ---------------------------------------


    POTLOK:  cpu time      2.0950: real time      2.0965
    SETDIJ:  cpu time      0.0217: real time      0.0219
    EDDIAG:  cpu time      0.5308: real time      0.5316
  RMM-DIIS:  cpu time      3.4717: real time      3.4722
    ORTHCH:  cpu time      0.0254: real time      0.0254
       DOS:  cpu time      0.0002: real time      0.0002
    CHARGE:  cpu time      0.3353: real time      0.3359
    MIXING:  cpu time      0.1572: real time      0.1572
    --------------------------------------------
      LOOP:  cpu time      6.6373: real time      6.6409

 eigenvalue-minimisations  :    66
 total energy-change (2. order) :-0.2468910E-02  (-0.1139034E-03)
 number of electron      42.0000002 magnetization 
 augmentation part        1.0446864 magnetization 

 Broyden mixing:
  rms(total) = 0.28565E-02    rms(broyden)= 0.28560E-02
  rms(prec ) = 0.42683E-02
  weight for this iteration     100.00

 eigenvalues of (default mixing * dielectric matrix)
  average eigenvalue GAMMA=   1.9334
  6.4529  2.9343  2.0595  2.0595  1.3248  1.3248  1.4173  0.9960  0.9960  0.8875
  0.8146

 Free energy of the ion-electron system (eV)
  ---------------------------------------------------
  alpha Z        PSCENC =         2.15216506
  Ewald energy   TEWEN  =      2589.09779196
  -Hartree energ DENC   =     -3721.10385342
  -exchange      EXHF   =         0.00000000
  -V(xc)+E(xc)   XCENC  =       140.94371014
  PAW double counting   =      3517.37327494    -3523.70890910
  entropy T*S    EENTRO =        -0.00000000
  eigenvalues    EBANDS =      -514.94186810
  atomic energy  EATOM  =      1406.67326350
  Solvation  Ediel_sol  =         0.00000000
  ---------------------------------------------------
  free energy    TOTEN  =      -103.51442502 eV

  energy without entropy =     -103.51442502  energy(sigma->0) =     -103.51442502


--------------------------------------------------------------------------------------------------------




--------------------------------------- Iteration      1(  17)  ---------------------------------------


    POTLOK:  cpu time      1.8094: real time      1.8097
    SETDIJ:  cpu time      0.0131: real time      0.0131
    EDDIAG:  cpu time      0.4561: real time      0.4562
  RMM-DIIS:  cpu time      1.9008: real time      1.9069
    ORTHCH:  cpu time      0.0167: real time      0.0167
       DOS:  cpu time      0.0001: real time      0.0001
    CHARGE:  cpu time      0.2338: real time      0.2341
    MIXING:  cpu time      0.0548: real time      0.0548
    --------------------------------------------
      LOOP:  cpu time      4.4847: real time      4.4916

 eigenvalue-minimisations  :    60
 total energy-change (2. order) :-0.3616215E-02  (-0.6868741E-04)
 number of electron      42.0000002 magnetization 
 augmentation part        1.0448084 magnetization 

 Broyden mixing:
  rms(total) = 0.16758E-02    rms(broyden)= 0.16755E-02
  rms(prec ) = 0.23700E-02
  weight for this iteration     100.00

 eigenvalues of (default mixing * dielectric matrix)
  average eigenvalue GAMMA=   2.0783
  7.5978  3.8505  2.4272  1.8725  1.8725  1.3385  1.3385  1.0594  1.0594  0.8606
  0.8606  0.8020

 Free energy of the ion-electron system (eV)
  ---------------------------------------------------
  alpha Z        PSCENC =         2.15216506
  Ewald energy   TEWEN  =      2589.09779196
  -Hartree energ DENC   =     -3720.64936805
  -exchange      EXHF   =         0.00000000
  -V(xc)+E(xc)   XCENC  =       140.91916896
  PAW double counting   =      3517.18483755    -3523.51706405
  entropy T*S    EENTRO =        -0.00000000
  eigenvalues    EBANDS =      -515.37883617
  atomic energy  EATOM  =      1406.67326350
  Solvation  Ediel_sol  =         0.00000000
  ---------------------------------------------------
  free energy    TOTEN  =      -103.51804123 eV

  energy without entropy =     -103.51804123  energy(sigma->0) =     -103.51804123


--------------------------------------------------------------------------------------------------------




--------------------------------------- Iteration      1(  18)  ---------------------------------------


    POTLOK:  cpu time      1.5346: real time      1.5637
    SETDIJ:  cpu time      0.0050: real time      0.0050
    EDDIAG:  cpu time      0.3409: real time      0.3421
  RMM-DIIS:  cpu time      1.8047: real time      1.8322
    ORTHCH:  cpu time      0.0127: real time      0.0127
       DOS:  cpu time      0.0001: real time      0.0001
    CHARGE:  cpu time      0.2024: real time      0.2025
    MIXING:  cpu time      0.0703: real time      0.0703
    --------------------------------------------
      LOOP:  cpu time      3.9708: real time      4.0287

 eigenvalue-minimisations  :    58
 total energy-change (2. order) :-0.9299643E-03  (-0.2647994E-04)
 number of electron      42.0000002 magnetization 
 augmentation part        1.0447946 magnetization 

 Broyden mixing:
  rms(total) = 0.19249E-02    rms(broyden)= 0.19247E-02
  rms(prec ) = 0.23422E-02
  weight for this iteration     100.00

 eigenvalues of (default mixing * dielectric matrix)
  average eigenvalue GAMMA=   2.0924
  7.7702  3.9848  2.3417  2.0138  2.0138  1.7220  1.3475  1.3475  1.0258  1.0258
  0.8125  0.8979  0.8979

 Free energy of the ion-electron system (eV)
  ---------------------------------------------------
  alpha Z        PSCENC =         2.15216506
  Ewald energy   TEWEN  =      2589.09779196
  -Hartree energ DENC   =     -3720.73159106
  -exchange      EXHF   =         0.00000000
  -V(xc)+E(xc)   XCENC  =       140.91979984
  PAW double counting   =      3518.74682719    -3525.07903978
  entropy T*S    EENTRO =        -0.00000000
  eigenvalues    EBANDS =      -515.29818790
  atomic energy  EATOM  =      1406.67326350
  Solvation  Ediel_sol  =         0.00000000
  ---------------------------------------------------
  free energy    TOTEN  =      -103.51897120 eV

  energy without entropy =     -103.51897120  energy(sigma->0) =     -103.51897120


--------------------------------------------------------------------------------------------------------




--------------------------------------- Iteration      1(  19)  ---------------------------------------


    POTLOK:  cpu time      1.5066: real time      1.5194
    SETDIJ:  cpu time      0.0053: real time      0.0054
    EDDIAG:  cpu time      0.3205: real time      0.3239
  RMM-DIIS:  cpu time      1.3822: real time      1.3873
    ORTHCH:  cpu time      0.0063: real time      0.0063
       DOS:  cpu time      0.0001: real time      0.0001
    CHARGE:  cpu time      0.1137: real time      0.1137
    MIXING:  cpu time      0.0566: real time      0.0566
    --------------------------------------------
      LOOP:  cpu time      3.3913: real time      3.4126

 eigenvalue-minimisations  :    59
 total energy-change (2. order) :-0.6030522E-03  (-0.2138635E-04)
 number of electron      42.0000002 magnetization 
 augmentation part        1.0446516 magnetization 

 Broyden mixing:
  rms(total) = 0.15849E-02    rms(broyden)= 0.15847E-02
  rms(prec ) = 0.18544E-02
  weight for this iteration     100.00

 eigenvalues of (default mixing * dielectric matrix)
  average eigenvalue GAMMA=   2.1490
  8.4224  4.7985  2.5262  2.4733  1.7475  1.7475  1.3338  1.3338  1.1180  1.1180
  0.8203  0.8690  0.8890  0.8890

 Free energy of the ion-electron system (eV)
  ---------------------------------------------------
  alpha Z        PSCENC =         2.15216506
  Ewald energy   TEWEN  =      2589.09779196
  -Hartree energ DENC   =     -3720.87126759
  -exchange      EXHF   =         0.00000000
  -V(xc)+E(xc)   XCENC  =       140.92229666
  PAW double counting   =      3517.24075383    -3523.57514987
  entropy T*S    EENTRO =        -0.00000000
  eigenvalues    EBANDS =      -515.15942781
  atomic energy  EATOM  =      1406.67326350
  Solvation  Ediel_sol  =         0.00000000
  ---------------------------------------------------
  free energy    TOTEN  =      -103.51957425 eV

  energy without entropy =     -103.51957425  energy(sigma->0) =     -103.51957425


--------------------------------------------------------------------------------------------------------




--------------------------------------- Iteration      1(  20)  ---------------------------------------


    POTLOK:  cpu time      1.0138: real time      1.0224
    SETDIJ:  cpu time      0.0097: real time      0.0097
    EDDIAG:  cpu time      0.2379: real time      0.2379
  RMM-DIIS:  cpu time      0.8806: real time      0.8806
    ORTHCH:  cpu time      0.0074: real time      0.0074
       DOS:  cpu time      0.0001: real time      0.0001
    CHARGE:  cpu time      0.1190: real time      0.1190
    MIXING:  cpu time      0.0406: real time      0.0406
    --------------------------------------------
      LOOP:  cpu time      2.3089: real time      2.3177

 eigenvalue-minimisations  :    46
 total energy-change (2. order) :-0.1573853E-03  (-0.3545114E-05)
 number of electron      42.0000002 magnetization 
 augmentation part        1.0446550 magnetization 

 Broyden mixing:
  rms(total) = 0.93385E-03    rms(broyden)= 0.93380E-03
  rms(prec ) = 0.11110E-02
  weight for this iteration     100.00

 eigenvalues of (default mixing * dielectric matrix)
  average eigenvalue GAMMA=   2.1764
  8.4264  5.3016  2.7008  2.2675  2.2675  1.3199  1.3199  1.5084  1.5084  1.2596
  1.0766  1.0766  0.8132  0.9002  0.9002

 Free energy of the ion-electron system (eV)
  ---------------------------------------------------
  alpha Z        PSCENC =         2.15216506
  Ewald energy   TEWEN  =      2589.09779196
  -Hartree energ DENC   =     -3720.83607426
  -exchange      EXHF   =         0.00000000
  -V(xc)+E(xc)   XCENC  =       140.92088715
  PAW double counting   =      3517.64015745    -3523.97365534
  entropy T*S    EENTRO =        -0.00000000
  eigenvalues    EBANDS =      -515.19426716
  atomic energy  EATOM  =      1406.67326350
  Solvation  Ediel_sol  =         0.00000000
  ---------------------------------------------------
  free energy    TOTEN  =      -103.51973164 eV

  energy without entropy =     -103.51973164  energy(sigma->0) =     -103.51973164


--------------------------------------------------------------------------------------------------------




--------------------------------------- Iteration      1(  21)  ---------------------------------------


    POTLOK:  cpu time      0.6943: real time      0.6943
    SETDIJ:  cpu time      0.0062: real time      0.0062
    EDDIAG:  cpu time      0.1360: real time      0.1360
  RMM-DIIS:  cpu time      0.6185: real time      0.6185
    ORTHCH:  cpu time      0.0068: real time      0.0068
       DOS:  cpu time      0.0001: real time      0.0001
    CHARGE:  cpu time      0.0864: real time      0.0864
    MIXING:  cpu time      0.0522: real time      0.0522
    --------------------------------------------
      LOOP:  cpu time      1.6005: real time      1.6006

 eigenvalue-minimisations  :    42
 total energy-change (2. order) :-0.1204073E-03  (-0.2139229E-05)
 number of electron      42.0000002 magnetization 
 augmentation part        1.0446765 magnetization 

 Broyden mixing:
  rms(total) = 0.19217E-03    rms(broyden)= 0.19205E-03
  rms(prec ) = 0.28718E-03
  weight for this iteration     100.00

 eigenvalues of (default mixing * dielectric matrix)
  average eigenvalue GAMMA=   2.2031
  8.9259  5.5169  3.3720  2.4930  2.0394  2.0394  1.3212  1.3212  1.2833  1.2833
  1.1585  0.8131  0.9486  0.9486  0.8924  0.8924

 Free energy of the ion-electron system (eV)
  ---------------------------------------------------
  alpha Z        PSCENC =         2.15216506
  Ewald energy   TEWEN  =      2589.09779196
  -Hartree energ DENC   =     -3720.81198426
  -exchange      EXHF   =         0.00000000
  -V(xc)+E(xc)   XCENC  =       140.92069952
  PAW double counting   =      3518.02514027    -3524.35830227
  entropy T*S    EENTRO =        -0.00000000
  eigenvalues    EBANDS =      -515.21862583
  atomic energy  EATOM  =      1406.67326350
  Solvation  Ediel_sol  =         0.00000000
  ---------------------------------------------------
  free energy    TOTEN  =      -103.51985204 eV

  energy without entropy =     -103.51985204  energy(sigma->0) =     -103.51985204


--------------------------------------------------------------------------------------------------------




--------------------------------------- Iteration      1(  22)  ---------------------------------------


    POTLOK:  cpu time      0.7213: real time      0.7214
    SETDIJ:  cpu time      0.0061: real time      0.0061
    EDDIAG:  cpu time      0.1573: real time      0.1573
  RMM-DIIS:  cpu time      0.6652: real time      0.6652
    ORTHCH:  cpu time      0.0059: real time      0.0059
       DOS:  cpu time      0.0001: real time      0.0001
    CHARGE:  cpu time      0.1260: real time      0.1260
    MIXING:  cpu time      0.0637: real time      0.0637
    --------------------------------------------
      LOOP:  cpu time      1.7455: real time      1.7456

 eigenvalue-minimisations  :    39
 total energy-change (2. order) :-0.4331334E-04  (-0.5714337E-06)
 number of electron      42.0000002 magnetization 
 augmentation part        1.0446865 magnetization 

 Broyden mixing:
  rms(total) = 0.19807E-03    rms(broyden)= 0.19798E-03
  rms(prec ) = 0.24863E-03
  weight for this iteration     100.00

 eigenvalues of (default mixing * dielectric matrix)
  average eigenvalue GAMMA=   2.2099
  9.0444  5.6863  3.4060  2.4293  2.4293  2.1311  1.6009  1.2759  1.2759  1.3171
  1.3171  1.0665  1.0665  0.8138  0.9026  0.9026  0.9033

 Free energy of the ion-electron system (eV)
  ---------------------------------------------------
  alpha Z        PSCENC =         2.15216506
  Ewald energy   TEWEN  =      2589.09779196
  -Hartree energ DENC   =     -3720.81386928
  -exchange      EXHF   =         0.00000000
  -V(xc)+E(xc)   XCENC  =       140.92067440
  PAW double counting   =      3517.86270038    -3524.19572029
  entropy T*S    EENTRO =        -0.00000000
  eigenvalues    EBANDS =      -515.21690109
  atomic energy  EATOM  =      1406.67326350
  Solvation  Ediel_sol  =         0.00000000
  ---------------------------------------------------
  free energy    TOTEN  =      -103.51989536 eV

  energy without entropy =     -103.51989536  energy(sigma->0) =     -103.51989536


--------------------------------------------------------------------------------------------------------




--------------------------------------- Iteration      1(  23)  ---------------------------------------


    POTLOK:  cpu time      0.7750: real time      0.7750
    SETDIJ:  cpu time      0.0093: real time      0.0093
    EDDIAG:  cpu time      0.1619: real time      0.1619
  RMM-DIIS:  cpu time      0.6453: real time      0.6453
    ORTHCH:  cpu time      0.0128: real time      0.0128
       DOS:  cpu time      0.0001: real time      0.0001
    CHARGE:  cpu time      0.1362: real time      0.1363
    MIXING:  cpu time      0.0738: real time      0.0738
    --------------------------------------------
      LOOP:  cpu time      1.8143: real time      1.8144

 eigenvalue-minimisations  :    34
 total energy-change (2. order) :-0.2633331E-04  (-0.1865490E-06)
 number of electron      42.0000002 magnetization 
 augmentation part        1.0446942 magnetization 

 Broyden mixing:
  rms(total) = 0.21235E-03    rms(broyden)= 0.21232E-03
  rms(prec ) = 0.25112E-03
  weight for this iteration     100.00

 eigenvalues of (default mixing * dielectric matrix)
  average eigenvalue GAMMA=   2.2675
  9.2003  6.1533  4.2936  2.7472  2.4099  2.0419  2.0419  1.3205  1.3205  1.3664
  1.3664  1.0266  1.0266  0.8134  0.9017  0.9017  0.9413  0.9413

 Free energy of the ion-electron system (eV)
  ---------------------------------------------------
  alpha Z        PSCENC =         2.15216506
  Ewald energy   TEWEN  =      2589.09779196
  -Hartree energ DENC   =     -3720.80563664
  -exchange      EXHF   =         0.00000000
  -V(xc)+E(xc)   XCENC  =       140.92042427
  PAW double counting   =      3517.92552497    -3524.25847375
  entropy T*S    EENTRO =        -0.00000000
  eigenvalues    EBANDS =      -515.22498107
  atomic energy  EATOM  =      1406.67326350
  Solvation  Ediel_sol  =         0.00000000
  ---------------------------------------------------
  free energy    TOTEN  =      -103.51992169 eV

  energy without entropy =     -103.51992169  energy(sigma->0) =     -103.51992169


--------------------------------------------------------------------------------------------------------




--------------------------------------- Iteration      1(  24)  ---------------------------------------


    POTLOK:  cpu time      0.7251: real time      0.7251
    SETDIJ:  cpu time      0.0095: real time      0.0095
    EDDIAG:  cpu time      0.0931: real time      0.0931
  RMM-DIIS:  cpu time      0.3676: real time      0.3676
    ORTHCH:  cpu time      0.0039: real time      0.0039
       DOS:  cpu time      0.0001: real time      0.0001
    --------------------------------------------
      LOOP:  cpu time      1.1992: real time      1.1992

 eigenvalue-minimisations  :    33
 total energy-change (2. order) :-0.9740615E-05  (-0.9137972E-07)
 number of electron      42.0000002 magnetization 
 augmentation part        1.0446942 magnetization 

 Free energy of the ion-electron system (eV)
  ---------------------------------------------------
  alpha Z        PSCENC =         2.15216506
  Ewald energy   TEWEN  =      2589.09779196
  -Hartree energ DENC   =     -3720.81536813
  -exchange      EXHF   =         0.00000000
  -V(xc)+E(xc)   XCENC  =       140.92056011
  PAW double counting   =      3517.81370986    -3524.14682084
  entropy T*S    EENTRO =        -0.00000000
  eigenvalues    EBANDS =      -515.21523295
  atomic energy  EATOM  =      1406.67326350
  Solvation  Ediel_sol  =         0.00000000
  ---------------------------------------------------
  free energy    TOTEN  =      -103.51993143 eV

  energy without entropy =     -103.51993143  energy(sigma->0) =     -103.51993143


[...]
 d Force =-0.4745772E-01[-0.474E-01,-0.475E-01]  d Ewald  =-0.4745773E-01 0.800E-08


--------------------------------------------------------------------------------------------------------


    POTLOK:  cpu time      1.2016: real time      1.2551


--------------------------------------------------------------------------------------------------------


 NEB: the previous image is higher in energy: T
 NEB: the next image is higher in energy    : F
 NEB: only prev energy greater

 NEB: Tangent
 ----------------------------------------------
      0.03543     -0.01541     -0.02535
      0.01120     -0.01511     -0.03046
      0.01659      0.00283      0.05332
      0.07776      0.00144      0.06799
      0.06563      0.00768      0.26260
      0.13433     -0.00324      0.20475
      0.14297      0.00650      0.34558
      0.02922     -0.02451     -0.08653
      0.00331     -0.03864      0.02813
      0.19633      0.06610      0.02305
     -0.01560     -0.02488     -0.09295
     -0.10069      0.06693      0.08742
      0.04448     -0.03274     -0.02828
      0.15779      0.01277      0.39609
     -0.10432      0.01963      0.31691
      0.26968     -0.02775      0.15351
      0.14853      0.01350      0.45423

 NEB: forces: par spring, perp REAL, dneb     0.007836    0.030987    0.000000
 NEB: distance to prev, next image, angle between     1.322005    1.320438  163.514607
 NEB: projections on to tangent (spring, REAL)    -0.007836   -0.001815

 stress matrix after NEB project (eV)
     -1.91757      0.01985      0.00984
      0.01985     -1.88130      0.02302
      0.00984      0.02302     -1.95159
  FORCES: max atom, RMS     0.014798    0.007752
  FORCE total and by dimension    0.031962    0.014533
  Stress total and by dimension    3.320711    1.951585
 Quasi-Newton relaxation of ions (Broydens 2nd method)
  g(Force)  = 0.418E-03   g(Stress)= 0.000E+00

 retain information from N=  1 steps
 eigenvalues of (default step * inverse Hessian matrix)
  average eigenvalue of G=   1.6672
 eigenvalue spectrum of G is  1.6672


--------------------------------------------------------------------------------------------------------


    WAVPRE:  cpu time      2.0217: real time      2.2503
    FEWALD:  cpu time      0.0156: real time      0.0156
    ORTHCH:  cpu time      0.1893: real time      0.2813
     LOOP+:  cpu time     17.7021: real time     22.0057


--------------------------------------- Iteration    108(   1)  ---------------------------------------


    POTLOK:  cpu time      1.6291: real time      1.7470
    SETDIJ:  cpu time      0.0039: real time      0.0158
     EDDAV:  cpu time      1.6087: real time      1.8624
       DOS:  cpu time      0.0001: real time      0.0001
    CHARGE:  cpu time      0.2809: real time      0.3099
    MIXING:  cpu time      0.0756: real time      0.0756
    --------------------------------------------
      LOOP:  cpu time      3.5983: real time      4.0109

 eigenvalue-minimisations  :    60
 total energy-change (2. order) :-0.2464022E-04  (-0.5566055E-04)
 number of electron      42.0000005 magnetization 
 augmentation part        1.0340328 magnetization 

 Broyden mixing:
  rms(total) = 0.38285E-03    rms(broyden)= 0.38074E-03
  rms(prec ) = 0.40399E-03
  weight for this iteration     100.00

 Free energy of the ion-electron system (eV)
  ---------------------------------------------------
  alpha Z        PSCENC =         2.15216506
  Ewald energy   TEWEN  =      2555.09445972
  -Hartree energ DENC   =     -3688.35831829
  -exchange      EXHF   =         0.00000000
  -V(xc)+E(xc)   XCENC  =       140.50179611
  PAW double counting   =      3450.51311688    -3456.81280466
  entropy T*S    EENTRO =        -0.00000000
  eigenvalues    EBANDS =      -513.36120152
  atomic energy  EATOM  =      1406.67326350
  Solvation  Ediel_sol  =         0.00000000
  ---------------------------------------------------
  free energy    TOTEN  =      -103.59752321 eV

  energy without entropy =     -103.59752321  energy(sigma->0) =     -103.59752321


--------------------------------------------------------------------------------------------------------




--------------------------------------- Iteration    108(   2)  ---------------------------------------


    POTLOK:  cpu time      1.6185: real time      1.8604
    SETDIJ:  cpu time      0.0038: real time      0.0038
    EDDIAG:  cpu time      0.2500: real time      0.2502
  RMM-DIIS:  cpu time      0.9349: real time      1.7631
    ORTHCH:  cpu time      0.0137: real time      0.0297
       DOS:  cpu time      0.0002: real time      0.0002
    --------------------------------------------
      LOOP:  cpu time      2.8211: real time      3.9073

 eigenvalue-minimisations  :    36
 total energy-change (2. order) :-0.5804959E-06  (-0.6080178E-06)
 number of electron      42.0000005 magnetization 
 augmentation part        1.0340328 magnetization 

 Free energy of the ion-electron system (eV)
  ---------------------------------------------------
  alpha Z        PSCENC =         2.15216506
  Ewald energy   TEWEN  =      2555.09445972
  -Hartree energ DENC   =     -3688.35840105
  -exchange      EXHF   =         0.00000000
  -V(xc)+E(xc)   XCENC  =       140.50181297
  PAW double counting   =      3450.52929838    -3456.82899417
  entropy T*S    EENTRO =        -0.00000000
  eigenvalues    EBANDS =      -513.36112820
  atomic energy  EATOM  =      1406.67326350
  Solvation  Ediel_sol  =         0.00000000
  ---------------------------------------------------
  free energy    TOTEN  =      -103.59752379 eV

  energy without entropy =     -103.59752379  energy(sigma->0) =     -103.59752379


--------------------------------------------------------------------------------------------------------




 average (electrostatic) potential at core
  the test charge radii are     0.6991  0.5201  0.7089
  (the norm of the test charge is              1.0000)
       1 -58.7453       2 -58.7672       3 -59.0550       4 -58.8587       5 -58.9634
       6 -59.8267       7 -59.6601       8 -41.9954       9 -41.9762      10 -41.9543
      11 -42.0244      12 -42.0613      13 -42.0801      14 -41.9884      15 -41.9560
      16 -42.5326      17 -72.9217
 
 
 
 E-fermi :  -5.8727     XC(G=0):  -0.6163     alpha+bet : -0.2838

 Fermi energy:        -5.8726862736

 k-point     1 :       0.0000    0.0000    0.0000
  band No.  band energies     occupation 
      1     -22.2828      2.00000
      2     -21.2005      2.00000
      3     -19.0955      2.00000
      4     -18.7167      2.00000
      5     -15.9951      2.00000
      6     -15.4528      2.00000
      7     -13.0974      2.00000
      8     -13.0226      2.00000
      9     -11.7723      2.00000
     10     -10.9992      2.00000
     11     -10.5175      2.00000
     12     -10.3641      2.00000
     13      -9.8247      2.00000
     14      -9.6596      2.00000
     15      -8.7587      2.00000
     16      -8.5400      2.00000
     17      -8.2887      2.00000
     18      -7.9125      2.00000
     19      -7.5769      2.00000
     20      -7.4743      2.00000
     21      -6.1287      2.00000
     22      -0.9438      0.00000
     23      -0.5843      0.00000
     24      -0.1471      0.00000
     25      -0.0792      0.00000
     26      -0.0354      0.00000
     27       0.0358      0.00000
     28       0.1745      0.00000
     29       0.3835      0.00000
     30       0.4945      0.00000


--------------------------------------------------------------------------------------------------------


 soft charge-density along one line, spin component           1
         0         1         2         3         4         5         6         7         8         9
 total charge-density along one line
 
 pseudopotential strength for first ion, spin component:           1
 10.250  13.632  -0.000  -0.000   0.001  -0.001   0.000  -0.002
 13.632  18.129  -0.000  -0.000   0.001  -0.002   0.001  -0.002
 -0.000  -0.000  -4.381  -0.001  -0.000   8.569   0.001   0.000
 -0.000  -0.000  -0.001  -4.372   0.001   0.001   8.558  -0.001
  0.001   0.001  -0.000   0.001  -4.376   0.000  -0.001   8.562
 -0.001  -0.002   8.569   0.001   0.000 -18.899  -0.001  -0.000
  0.000   0.001   0.001   8.558  -0.001  -0.001 -18.888   0.000
 -0.002  -0.002   0.000  -0.001   8.562  -0.000   0.000 -18.890
 total augmentation occupancy for first ion, spin component:           1
  7.785  -3.372   0.383   0.035   0.022   0.062   0.004   0.010
 -3.372   1.506  -0.222  -0.016  -0.029  -0.034  -0.002  -0.009
  0.383  -0.222   1.893   0.072   0.015   0.177   0.011  -0.001
  0.035  -0.016   0.072   1.203  -0.101   0.011   0.075  -0.016
  0.022  -0.029   0.015  -0.101   1.645  -0.001  -0.016   0.144
  0.062  -0.034   0.177   0.011  -0.001   0.018   0.001  -0.001
  0.004  -0.002   0.011   0.075  -0.016   0.001   0.005  -0.002
  0.010  -0.009  -0.001  -0.016   0.144  -0.001  -0.002   0.013


------------------------ aborting loop because EDIFF is reached ----------------------------------------


    CHARGE:  cpu time      0.2103: real time      0.3815
    FORLOC:  cpu time      0.1325: real time      0.1326
    FORNL :  cpu time      0.1988: real time      0.2008
    STRESS:  cpu time      1.0013: real time      1.0960
    FORCOR:  cpu time      1.0870: real time      1.5630
    FORHAR:  cpu time      0.4035: real time      0.5276
    MIXING:  cpu time      0.0279: real time      0.0439
    OFIELD:  cpu time      0.0001: real time      0.0001

 ---------------------------------------------------------------------------------------------

         DFTD3 V3.0 Rev 1        
 Edisp (eV)   -0.19761

 E6    (eV) :    -0.0804
 E8    (eV) :    -0.1172
 % E8        : 59.30
    FORVDW:  cpu time      0.0082: real time      0.0082

  FORCE on cell =-STRESS in cart. coord.  units (eV):
  Direction    XX          YY          ZZ          XY          YZ          ZX
  --------------------------------------------------------------------------------------
  Alpha Z     2.15217     2.15217     2.15217
  Ewald    1510.15533  1231.89715  -186.95920   436.81560   -44.24552  -318.54465
  Hartree  1713.86798  1498.66062   475.83086   301.80365   -49.71646  -239.83680
  E(xc)    -152.55047  -152.94621  -154.56513     0.65036     0.08760    -0.28602
  Local   -3619.88582 -3134.21113  -714.01552  -724.54973    96.09116   555.84799
  n-local   -62.22551   -61.08153   -60.47896    -1.69602    -0.21402    -0.19032
  augment    -0.61263    -0.65118    -0.63503     0.00992    -0.01367    -0.00267
  Kinetic   607.20750   614.32364   636.70236   -12.99666    -1.97196     3.00948
  Fock        0.00000     0.00000     0.00000     0.00000     0.00000     0.00000
  vdW        -0.02853    -0.02732     0.01360    -0.01646     0.00393     0.01146
  -------------------------------------------------------------------------------------
  Total      -1.91997    -1.88379    -1.95486     0.02064     0.02105     0.00847
  in kB      -0.84188    -0.82602    -0.85718     0.00905     0.00923     0.00371
  external pressure =       -0.84 kB  Pullay stress =        0.00 kB


 VOLUME and BASIS-vectors are now :
 -----------------------------------------------------------------------------
  energy-cutoff  :      400.00
  volume of cell :     3653.87
      direct lattice vectors                 reciprocal lattice vectors
    15.402250290  0.000000000  0.000000000     0.064925578  0.000000000  0.000000000
     0.000000000 15.402250290  0.000000000     0.000000000  0.064925578  0.000000000
     0.000000000  0.000000000 15.402250290     0.000000000  0.000000000  0.064925578

  length of vectors
    15.402250290 15.402250290 15.402250290     0.064925578  0.064925578  0.064925578


 FORCES acting on ions
    electron-ion (+dipol)            ewald-force                    non-local-force                 convergence-correction
 -----------------------------------------------------------------------------------------------
   0.157E+03 0.116E+03 -.241E+02   -.158E+03 -.116E+03 0.243E+02   0.535E+00 0.391E+00 -.142E+00   0.191E-03 0.248E-04 -.110E-03
   0.168E+03 -.843E+02 -.526E+02   -.168E+03 0.843E+02 0.529E+02   0.840E+00 0.320E-01 -.266E+00   0.198E-03 -.317E-04 -.176E-03
   0.514E+02 -.159E+03 -.412E+02   -.519E+02 0.160E+03 0.416E+02   0.453E+00 -.846E+00 -.432E+00   0.469E-03 -.362E-03 0.319E-03
   0.152E+02 0.182E+03 0.219E+02   -.149E+02 -.183E+03 -.218E+02   -.285E+00 0.395E+00 -.251E-01   0.142E-03 0.345E-03 -.404E-03
   -.128E+03 0.106E+03 -.407E+02   0.128E+03 -.107E+03 0.413E+02   -.582E+00 0.126E+01 -.584E+00   -.519E-03 0.345E-03 0.123E-02
   -.329E+02 -.310E+02 0.898E+02   0.291E+02 0.283E+02 -.895E+02   0.376E+01 0.269E+01 -.343E+00   0.821E-04 0.718E-04 0.379E-03
   -.290E+02 -.220E+02 0.348E+02   0.264E+02 0.203E+02 -.347E+02   0.259E+01 0.169E+01 -.636E-01   -.260E-03 -.219E-03 -.188E-02
   0.705E+02 0.444E+02 -.111E+02   -.753E+02 -.474E+02 0.118E+02   0.477E+01 0.298E+01 -.736E+00   0.419E-05 -.345E-04 0.167E-04
   -.255E+01 0.769E+02 -.366E+02   0.293E+01 -.814E+02 0.397E+02   -.382E+00 0.448E+01 -.311E+01   0.384E-04 -.885E-04 -.136E-03
   0.835E+01 0.502E+02 0.677E+02   -.870E+01 -.520E+02 -.727E+02   0.355E+00 0.188E+01 0.503E+01   0.733E-04 0.201E-03 -.866E-04
   0.735E+02 -.349E+02 -.219E+02   -.785E+02 0.374E+02 0.233E+02   0.491E+01 -.247E+01 -.143E+01   -.224E-04 0.144E-04 -.691E-04
   -.117E+02 -.462E+02 -.708E+02   0.135E+02 0.481E+02 0.756E+02   -.183E+01 -.188E+01 -.478E+01   0.653E-05 -.152E-03 -.210E-04
   0.290E+02 -.753E+02 0.304E+02   -.304E+02 0.798E+02 -.332E+02   0.148E+01 -.452E+01 0.281E+01   0.922E-04 0.593E-04 0.387E-04
   -.679E+02 0.481E+02 0.229E+02   0.724E+02 -.506E+02 -.252E+02   -.446E+01 0.249E+01 0.225E+01   0.182E-03 -.701E-04 0.310E-03
   -.348E+02 0.113E+02 -.778E+02   0.360E+02 -.107E+02 0.832E+02   -.117E+01 -.642E+00 -.535E+01   -.231E-03 0.428E-04 0.838E-04
   0.132E+02 0.184E+01 0.877E+02   -.148E+02 -.258E+01 -.929E+02   0.161E+01 0.751E+00 0.522E+01   0.199E-04 -.839E-04 0.227E-04
   -.258E+03 -.171E+03 0.228E+02   0.292E+03 0.193E+03 -.235E+02   -.337E+02 -.219E+02 0.668E+00   0.236E-03 0.288E-03 -.459E-02
 -----------------------------------------------------------------------------------------------
   0.211E+02 0.132E+02 0.131E+01   0.568E-13 -.853E-13 0.782E-13   -.211E+02 -.132E+02 -.130E+01   0.703E-03 0.350E-03 -.507E-02
 
 
 POSITION                                       TOTAL-FORCE (eV/Angst)
 -----------------------------------------------------------------------------------
      5.26498      6.75114      8.69974        -0.000296     -0.000031     -0.000005
      5.22358      8.08263      8.84369        -0.000147      0.000005      0.000617
      6.41039      8.98149      8.63285        -0.001044      0.000477     -0.000852
      6.51804      5.99418      8.35593        -0.000678     -0.000797      0.001530
      7.77544      6.85151      8.52014         0.000160     -0.000457     -0.004172
      7.54249      8.24106      7.88821         0.000162      0.001368     -0.000851
      8.76491      9.03729      7.85116        -0.001424     -0.000566      0.004398
      4.35028      6.16788      8.83970        -0.000624      0.000314     -0.001143
      6.59584      5.09397      8.98808         0.000454      0.003630      0.008426
      6.44889      5.61555      7.31839        -0.002350     -0.008779      0.004859
      4.28320      8.56841      9.11903         0.000069     -0.000350      0.001827
      6.78921      9.35361      9.60199        -0.001480      0.004151     -0.002146
      6.11509      9.87790      8.06407        -0.003069     -0.001392     -0.003607
      8.64896      6.36351      8.06473        -0.002289     -0.000362     -0.011000
      8.00078      6.99028      9.59022         0.007531     -0.003047     -0.006251
      7.22437      8.09085      6.83975         0.001712      0.004346     -0.002068
      9.74376      9.67401      7.83231         0.003312      0.001492      0.010440
 -----------------------------------------------------------------------------------
    total drift:                                0.002997     -0.001124      0.001649


--------------------------------------------------------------------------------------------------------



  FREE ENERGIE OF THE ION-ELECTRON SYSTEM (eV)
  ---------------------------------------------------
  free  energy   TOTEN  =      -103.79513873 eV

  energy  without entropy=     -103.79513873  energy(sigma->0) =     -103.79513873
 
 d Force = 0.2060713E-04[ 0.189E-04, 0.223E-04]  d Energy = 0.2059715E-04 0.997E-08
 d Force = 0.1535402E-01[ 0.154E-01, 0.153E-01]  d Ewald  = 0.1535402E-01-0.642E-08


--------------------------------------------------------------------------------------------------------


    POTLOK:  cpu time      1.2239: real time      1.6176


--------------------------------------------------------------------------------------------------------


 NEB: the previous image is higher in energy: T
 NEB: the next image is higher in energy    : F
 NEB: only prev energy greater

 NEB: Tangent
 ----------------------------------------------
      0.03540     -0.01539     -0.02541
      0.01115     -0.01509     -0.03055
      0.01661      0.00281      0.05340
      0.07778      0.00143      0.06811
      0.06566      0.00769      0.26253
      0.13433     -0.00320      0.20475
      0.14299      0.00655      0.34566
      0.02916     -0.02449     -0.08673
      0.00335     -0.03849      0.02847
      0.19635      0.06581      0.02327
     -0.01571     -0.02485     -0.09319
     -0.10067      0.06674      0.08753
      0.04458     -0.03267     -0.02810
      0.15776      0.01277      0.39589
     -0.10411      0.01963      0.31681
      0.26966     -0.02765      0.15352
      0.14853      0.01352      0.45443

 NEB: forces: par spring, perp REAL, dneb     0.007703    0.025757    0.000000
 NEB: distance to prev, next image, angle between     1.322063    1.320522  163.574868
 NEB: projections on to tangent (spring, REAL)    -0.007703   -0.002904

 stress matrix after NEB project (eV)
     -1.91997      0.02064      0.00847
      0.02064     -1.88379      0.02105
      0.00847      0.02105     -1.95486
  FORCES: max atom, RMS     0.013261    0.006520
  FORCE total and by dimension    0.026885    0.012900
  Stress total and by dimension    3.325407    1.954862
 Quasi-Newton relaxation of ions (Broydens 2nd method)
  g(Force)  = 0.386E-03   g(Stress)= 0.000E+00

 retain information from N=  2 steps
 eigenvalues of (default step * inverse Hessian matrix)
  average eigenvalue of G=   4.3533
 eigenvalue spectrum of G is  4.3533  4.3533


--------------------------------------------------------------------------------------------------------


  
 reached required accuracy - stopping structural energy minimisation
     LOOP+:  cpu time     15.1452: real time     18.3313
    4ORBIT:  cpu time      0.0000: real time      0.0000

 total amount of memory used by VASP MPI-rank0   277942. kBytes
=======================================================================

   base      :      30000. kBytes
   nonl-proj :      15437. kBytes
   fftplans  :      71598. kBytes
   grid      :     152883. kBytes
   one-center:         26. kBytes
   wavefun   :       7998. kBytes
 
  
  
 General timing and accounting informations for this job:
 ========================================================
  
                  Total CPU time used (sec):     2238.883
                            User time (sec):     2072.203
                          System time (sec):      166.680
                         Elapsed time (sec):     3151.802
  
                   Maximum memory used (kb):     1135376.
                   Average memory used (kb):          N/A
  
                          Minor page faults:     12304180
                          Major page faults:          253
                 Voluntary context switches:         1518
