 vasp.6.3.2 27Jun22 (build Oct 05 2023 17:59:42) gamma-only                     
  
 POSCAR found type information on POSCAR C H N 
 09/POSCAR found :  3 types and      17 ions
 scaLAPACK will be used
 -----------------------------------------------------------------------------
|                                                                             |
|               ----> ADVICE to this user running VASP <----                  |
|                                                                             |
|     You have a (more or less) 'large supercell' and for larger cells it     |
|     might be more efficient to use real-space projection operators.         |
|     Therefore, try LREAL= Auto in the INCAR file.                           |
|     Mind: For very accurate calculation, you might also keep the            |
|     reciprocal projection scheme (i.e. LREAL=.FALSE.).                      |
|                                                                             |
 -----------------------------------------------------------------------------

 LDA part: xc-table for Pade appr. of Perdew
 POSCAR found type information on POSCAR C H N 
 00/POSCAR found :  3 types and      17 ions
 POSCAR found type information on POSCAR C H N 
 10/POSCAR found :  3 types and      17 ions
 Jacobian:    24.6978413598026     
 POSCAR found type information on POSCAR C H N 
 00/POSCAR found :  3 types and      17 ions
 POSCAR found type information on POSCAR C H N 
 10/POSCAR found :  3 types and      17 ions
 POSCAR, INCAR and KPOINTS ok, starting setup
 FFT: planning ... GRIDC
 FFT: planning ... GRID_SOFT
 FFT: planning ... GRID
 WAVECAR not read
 entering main loop
       N       E                     dE             d eps       ncg     rms          rms(c)
DAV:   1     0.336461803791E+03    0.33646E+03   -0.10193E+04    76   0.668E+02
DAV:   2     0.430570966853E+02   -0.29340E+03   -0.28540E+03   104   0.133E+02
DAV:   3    -0.998292153107E+02   -0.14289E+03   -0.14246E+03    80   0.107E+02
DAV:   4    -0.114117252178E+03   -0.14288E+02   -0.14270E+02    88   0.475E+01
DAV:   5    -0.114277698133E+03   -0.16045E+00   -0.15980E+00    80   0.625E+00    0.170E+01
RMM:   6    -0.105840378182E+03    0.84373E+01   -0.11568E+01    60   0.138E+01    0.924E+00
RMM:   7    -0.103778099330E+03    0.20623E+01   -0.10523E+01    60   0.129E+01    0.400E+00
RMM:   8    -0.103595610807E+03    0.18249E+00   -0.72701E-01    60   0.443E+00    0.242E+00
RMM:   9    -0.103490683606E+03    0.10493E+00   -0.47210E-01    60   0.300E+00    0.705E-01
RMM:  10    -0.103486482338E+03    0.42013E-02   -0.75870E-02    65   0.125E+00    0.338E-01
RMM:  11    -0.103497187123E+03   -0.10705E-01   -0.12013E-01    60   0.129E+00    0.431E-01
RMM:  12    -0.103492270971E+03    0.49162E-02   -0.99782E-03    60   0.533E-01    0.279E-01
RMM:  13    -0.103497037281E+03   -0.47663E-02   -0.23352E-02    60   0.580E-01    0.918E-02
RMM:  14    -0.103500939573E+03   -0.39023E-02   -0.46460E-03    61   0.296E-01    0.704E-02
RMM:  15    -0.103511956109E+03   -0.11017E-01   -0.28323E-03    60   0.196E-01    0.302E-02
RMM:  16    -0.103514425019E+03   -0.24689E-02   -0.11390E-03    66   0.103E-01    0.286E-02
RMM:  17    -0.103518041235E+03   -0.36162E-02   -0.68687E-04    60   0.959E-02    0.168E-02
RMM:  18    -0.103518971199E+03   -0.92996E-03   -0.26480E-04    58   0.519E-02    0.192E-02
RMM:  19    -0.103519574251E+03   -0.60305E-03   -0.21386E-04    59   0.527E-02    0.158E-02
RMM:  20    -0.103519731636E+03   -0.15739E-03   -0.35451E-05    46   0.234E-02    0.934E-03
RMM:  21    -0.103519852044E+03   -0.12041E-03   -0.21392E-05    42   0.168E-02    0.192E-03
RMM:  22    -0.103519895357E+03   -0.43313E-04   -0.57143E-06    39   0.104E-02    0.198E-03
RMM:  23    -0.103519921690E+03   -0.26333E-04   -0.18655E-06    34   0.615E-03    0.212E-03
RMM:  24    -0.103519931431E+03   -0.97406E-05   -0.91380E-07    33   0.430E-03
   1 F= -.10371863E+03 E0= -.10371863E+03  d E =-.103719E+03
 BRION: g(F)=  0.400E+00 g(S)=  0.000E+00
 bond charge predicted
       N       E                     dE             d eps       ncg     rms          rms(c)
DAV:   1    -0.103535405651E+03   -0.15484E-01   -0.37121E-01    88   0.364E+00    0.146E-01
RMM:   2    -0.103535574539E+03   -0.16889E-03   -0.56711E-03    60   0.433E-01    0.916E-02
RMM:   3    -0.103535524815E+03    0.49725E-04   -0.13050E-03    60   0.206E-01    0.266E-02
RMM:   4    -0.103535551364E+03   -0.26549E-04   -0.25625E-04    63   0.962E-02    0.169E-02
RMM:   5    -0.103535559152E+03   -0.77882E-05   -0.68787E-05    53   0.465E-02
   2 F= -.10373427E+03 E0= -.10373427E+03  d E =-.156380E-01
 BRION: g(F)=  0.319E+00 g(S)=  0.000E+00 retain N=  1 mean eig= 1.51
 eig:   1.513
 bond charge predicted
       N       E                     dE             d eps       ncg     rms          rms(c)
DAV:   1    -0.103545840687E+03   -0.10289E-01   -0.27793E-01    72   0.320E+00    0.151E-01
RMM:   2    -0.103545902282E+03   -0.61596E-04   -0.40148E-03    60   0.393E-01    0.852E-02
RMM:   3    -0.103545855546E+03    0.46737E-04   -0.81101E-04    60   0.168E-01    0.344E-02
RMM:   4    -0.103545881210E+03   -0.25665E-04   -0.28421E-04    62   0.897E-02    0.201E-02
RMM:   5    -0.103545885416E+03   -0.42061E-05   -0.39108E-05    46   0.351E-02
   3 F= -.10374465E+03 E0= -.10374465E+03  d E =-.103770E-01
 BRION: g(F)=  0.289E+00 g(S)=  0.000E+00 retain N=  2 mean eig= 1.51
 eig:   1.511  1.511
 bond charge predicted
       N       E                     dE             d eps       ncg     rms          rms(c)
DAV:   1    -0.103550585269E+03   -0.47041E-02   -0.10184E-01    66   0.189E+00    0.924E-02
RMM:   2    -0.103550597850E+03   -0.12581E-04   -0.18642E-03    60   0.234E-01    0.543E-02
RMM:   3    -0.103550581650E+03    0.16200E-04   -0.35925E-04    60   0.107E-01    0.276E-02
RMM:   4    -0.103550592622E+03   -0.10972E-04   -0.12766E-04    60   0.597E-02    0.148E-02
RMM:   5    -0.103550596710E+03   -0.40876E-05   -0.17400E-05    41   0.248E-02
   4 F= -.10374935E+03 E0= -.10374935E+03  d E =-.470669E-02
 BRION: g(F)=  0.271E+00 g(S)=  0.000E+00 retain N=  3 mean eig= 1.67
 eig:   1.936  1.936  1.130
 bond charge predicted
       N       E                     dE             d eps       ncg     rms          rms(c)
DAV:   1    -0.103553492068E+03   -0.28994E-02   -0.38542E-02    72   0.120E+00    0.628E-02
RMM:   2    -0.103553493535E+03   -0.14668E-05   -0.57455E-04    60   0.148E-01    0.341E-02
RMM:   3    -0.103553489695E+03    0.38403E-05   -0.11128E-04    61   0.626E-02    0.150E-02
RMM:   4    -0.103553493729E+03   -0.40346E-05   -0.39519E-05    51   0.339E-02
   5 F= -.10375228E+03 E0= -.10375228E+03  d E =-.292831E-02
 BRION: g(F)=  0.251E+00 g(S)=  0.000E+00 retain N=  4 mean eig= 2.61
 eig:   3.423  3.423  2.476  1.116
 bond charge predicted
       N       E                     dE             d eps       ncg     rms          rms(c)
DAV:   1    -0.103557846980E+03   -0.43573E-02   -0.15985E-01    60   0.239E+00    0.107E-01
RMM:   2    -0.103557938116E+03   -0.91136E-04   -0.25471E-03    60   0.291E-01    0.623E-02
RMM:   3    -0.103557951810E+03   -0.13694E-04   -0.50687E-04    60   0.132E-01    0.290E-02
RMM:   4    -0.103557968566E+03   -0.16756E-04   -0.12466E-04    62   0.643E-02    0.169E-02
RMM:   5    -0.103557973142E+03   -0.45765E-05   -0.24105E-05    43   0.298E-02
   6 F= -.10375676E+03 E0= -.10375676E+03  d E =-.447981E-02
 BRION: g(F)=  0.182E+00 g(S)=  0.000E+00 retain N=  3 mean eig= 2.85
 eig:   5.704  1.420  1.420
 bond charge predicted
       N       E                     dE             d eps       ncg     rms          rms(c)
DAV:   1    -0.103564449774E+03   -0.64812E-02   -0.38548E-01    60   0.378E+00    0.202E-01
RMM:   2    -0.103564550333E+03   -0.10056E-03   -0.55442E-03    60   0.454E-01    0.108E-01
RMM:   3    -0.103564555348E+03   -0.50151E-05   -0.10477E-03    61   0.193E-01    0.466E-02
RMM:   4    -0.103564587419E+03   -0.32072E-04   -0.31480E-04    61   0.983E-02    0.229E-02
RMM:   5    -0.103564592908E+03   -0.54886E-05   -0.49013E-05    50   0.395E-02
   7 F= -.10376342E+03 E0= -.10376342E+03  d E =-.665747E-02
 BRION: g(F)=  0.122E+00 g(S)=  0.000E+00 retain N=  4 mean eig= 4.69
 eig:   7.853  7.853  1.531  1.531
 bond charge predicted
       N       E                     dE             d eps       ncg     rms          rms(c)
DAV:   1    -0.103567061650E+03   -0.24742E-02   -0.13327E-01    60   0.208E+00    0.129E-01
RMM:   2    -0.103567080103E+03   -0.18453E-04   -0.31146E-03    60   0.288E-01    0.719E-02
RMM:   3    -0.103567042913E+03    0.37190E-04   -0.51431E-04    61   0.127E-01    0.379E-02
RMM:   4    -0.103567053636E+03   -0.10723E-04   -0.23504E-04    59   0.768E-02    0.162E-02
RMM:   5    -0.103567057836E+03   -0.41996E-05   -0.27076E-05    45   0.304E-02
   8 F= -.10376583E+03 E0= -.10376583E+03  d E =-.240873E-02
 BRION: g(F)=  0.892E-01 g(S)=  0.000E+00 retain N=  2 mean eig= 4.24
 eig:   4.240  4.240
 bond charge predicted
       N       E                     dE             d eps       ncg     rms          rms(c)
DAV:   1    -0.103570214462E+03   -0.31608E-02   -0.13326E-01    60   0.222E+00    0.134E-01
RMM:   2    -0.103570192032E+03    0.22430E-04   -0.22564E-03    60   0.288E-01    0.725E-02
RMM:   3    -0.103570166748E+03    0.25284E-04   -0.38856E-04    60   0.120E-01    0.325E-02
RMM:   4    -0.103570177938E+03   -0.11190E-04   -0.17300E-04    61   0.689E-02    0.118E-02
RMM:   5    -0.103570178879E+03   -0.94016E-06   -0.18500E-05    42   0.252E-02
   9 F= -.10376896E+03 E0= -.10376896E+03  d E =-.313423E-02
 BRION: g(F)=  0.700E-01 g(S)=  0.000E+00 retain N=  2 mean eig= 3.16
 eig:   3.165  3.165
 bond charge predicted
       N       E                     dE             d eps       ncg     rms          rms(c)
DAV:   1    -0.103571758024E+03   -0.15801E-02   -0.48970E-02    60   0.129E+00    0.686E-02
RMM:   2    -0.103571780549E+03   -0.22525E-04   -0.10249E-03    60   0.170E-01    0.401E-02
RMM:   3    -0.103571777004E+03    0.35452E-05   -0.16805E-04    60   0.742E-02    0.215E-02
RMM:   4    -0.103571781662E+03   -0.46581E-05   -0.66806E-05    52   0.428E-02
  10 F= -.10377053E+03 E0= -.10377053E+03  d E =-.156474E-02
 BRION: g(F)=  0.602E-01 g(S)=  0.000E+00 retain N=  3 mean eig= 3.98
 eig:   5.289  5.289  1.352
 bond charge predicted
       N       E                     dE             d eps       ncg     rms          rms(c)
DAV:   1    -0.103573564555E+03   -0.17876E-02   -0.53606E-02    60   0.141E+00    0.770E-02
RMM:   2    -0.103573569292E+03   -0.47378E-05   -0.75571E-04    60   0.168E-01    0.424E-02
RMM:   3    -0.103573571091E+03   -0.17986E-05   -0.13459E-04    61   0.698E-02    0.191E-02
RMM:   4    -0.103573576360E+03   -0.52692E-05   -0.44540E-05    50   0.366E-02
  11 F= -.10377231E+03 E0= -.10377231E+03  d E =-.178492E-02
 BRION: g(F)=  0.509E-01 g(S)=  0.000E+00 retain N=  3 mean eig= 5.48
 eig:   7.382  7.382  1.676
 bond charge predicted
       N       E                     dE             d eps       ncg     rms          rms(c)
DAV:   1    -0.103575657205E+03   -0.20861E-02   -0.70283E-02    60   0.160E+00    0.763E-02
RMM:   2    -0.103575695401E+03   -0.38196E-04   -0.86965E-04    60   0.177E-01    0.434E-02
RMM:   3    -0.103575715431E+03   -0.20030E-04   -0.17219E-04    61   0.770E-02    0.161E-02
RMM:   4    -0.103575721378E+03   -0.59470E-05   -0.37465E-05    48   0.356E-02
  12 F= -.10377442E+03 E0= -.10377442E+03  d E =-.210622E-02
 BRION: g(F)=  0.418E-01 g(S)=  0.000E+00 retain N=  2 mean eig= 5.01
 eig:   5.010  5.010
 bond charge predicted
       N       E                     dE             d eps       ncg     rms          rms(c)
DAV:   1    -0.103576639325E+03   -0.92389E-03   -0.49507E-02    60   0.129E+00    0.808E-02
RMM:   2    -0.103576647814E+03   -0.84894E-05   -0.11544E-03    60   0.178E-01    0.454E-02
RMM:   3    -0.103576633424E+03    0.14390E-04   -0.18523E-04    59   0.769E-02    0.236E-02
RMM:   4    -0.103576636736E+03   -0.33119E-05   -0.91791E-05    55   0.473E-02
  13 F= -.10377528E+03 E0= -.10377528E+03  d E =-.866108E-03
 BRION: g(F)=  0.391E-01 g(S)=  0.000E+00 retain N=  3 mean eig= 4.95
 eig:   6.647  6.647  1.549
 bond charge predicted
       N       E                     dE             d eps       ncg     rms          rms(c)
DAV:   1    -0.103578269401E+03   -0.16360E-02   -0.46309E-02    60   0.131E+00    0.852E-02
RMM:   2    -0.103578237411E+03    0.31990E-04   -0.84739E-04    60   0.171E-01    0.463E-02
RMM:   3    -0.103578226076E+03    0.11335E-04   -0.16302E-04    61   0.731E-02    0.216E-02
RMM:   4    -0.103578231543E+03   -0.54678E-05   -0.76782E-05    52   0.431E-02
  14 F= -.10377687E+03 E0= -.10377687E+03  d E =-.158723E-02
 BRION: g(F)=  0.314E-01 g(S)=  0.000E+00 retain N=  2 mean eig= 3.20
 eig:   3.200  3.200
 bond charge predicted
       N       E                     dE             d eps       ncg     rms          rms(c)
DAV:   1    -0.103579189928E+03   -0.96385E-03   -0.18155E-02    60   0.812E-01    0.447E-02
RMM:   2    -0.103579191682E+03   -0.17547E-05   -0.31713E-04    60   0.100E-01    0.261E-02
RMM:   3    -0.103579189796E+03    0.18860E-05   -0.63266E-05    53   0.449E-02
  15 F= -.10377779E+03 E0= -.10377779E+03  d E =-.921125E-03
 BRION: g(F)=  0.287E-01 g(S)=  0.000E+00 retain N=  3 mean eig= 4.74
 eig:   6.391  6.391  1.425
 bond charge predicted
       N       E                     dE             d eps       ncg     rms          rms(c)
DAV:   1    -0.103580186729E+03   -0.99505E-03   -0.16140E-02    60   0.773E-01    0.415E-02
RMM:   2    -0.103580188392E+03   -0.16632E-05   -0.20059E-04    60   0.882E-02    0.238E-02
RMM:   3    -0.103580190760E+03   -0.23681E-05   -0.41446E-05    50   0.378E-02
  16 F= -.10377877E+03 E0= -.10377877E+03  d E =-.978834E-03
 BRION: g(F)=  0.260E-01 g(S)=  0.000E+00 retain N=  3 mean eig= 5.21
 eig:   6.944  6.944  1.745
 bond charge predicted
       N       E                     dE             d eps       ncg     rms          rms(c)
DAV:   1    -0.103581276503E+03   -0.10881E-02   -0.19596E-02    60   0.846E-01    0.415E-02
RMM:   2    -0.103581283097E+03   -0.65934E-05   -0.19863E-04    60   0.871E-02    0.245E-02
RMM:   3    -0.103581289277E+03   -0.61805E-05   -0.47749E-05    53   0.386E-02
  17 F= -.10377984E+03 E0= -.10377984E+03  d E =-.106544E-02
 BRION: g(F)=  0.230E-01 g(S)=  0.000E+00 retain N=  2 mean eig= 5.28
 eig:   5.279  5.279
 bond charge predicted
       N       E                     dE             d eps       ncg     rms          rms(c)
DAV:   1    -0.103582069627E+03   -0.78653E-03   -0.22357E-02    60   0.900E-01    0.516E-02
RMM:   2    -0.103582075870E+03   -0.62431E-05   -0.45367E-04    60   0.119E-01    0.299E-02
RMM:   3    -0.103582071677E+03    0.41927E-05   -0.76883E-05    52   0.508E-02
  18 F= -.10378057E+03 E0= -.10378057E+03  d E =-.738101E-03
 BRION: g(F)=  0.219E-01 g(S)=  0.000E+00 retain N=  3 mean eig= 5.72
 eig:   7.537  7.537  2.078
 bond charge predicted
       N       E                     dE             d eps       ncg     rms          rms(c)
DAV:   1    -0.103582998821E+03   -0.92295E-03   -0.21837E-02    60   0.900E-01    0.565E-02
RMM:   2    -0.103582987237E+03    0.11584E-04   -0.41094E-04    60   0.119E-01    0.315E-02
RMM:   3    -0.103582981269E+03    0.59684E-05   -0.84358E-05    52   0.518E-02
  19 F= -.10378147E+03 E0= -.10378147E+03  d E =-.893792E-03
 BRION: g(F)=  0.194E-01 g(S)=  0.000E+00 retain N=  2 mean eig= 3.93
 eig:   3.931  3.931
 bond charge predicted
       N       E                     dE             d eps       ncg     rms          rms(c)
DAV:   1    -0.103583985787E+03   -0.99855E-03   -0.21946E-02    60   0.898E-01    0.443E-02
RMM:   2    -0.103583991597E+03   -0.58100E-05   -0.28249E-04    60   0.101E-01    0.268E-02
RMM:   3    -0.103583993737E+03   -0.21400E-05   -0.67279E-05    58   0.459E-02
  20 F= -.10378244E+03 E0= -.10378244E+03  d E =-.968330E-03
 BRION: g(F)=  0.179E-01 g(S)=  0.000E+00 retain N=  3 mean eig= 5.25
 eig:   7.016  7.016  1.717
 bond charge predicted
       N       E                     dE             d eps       ncg     rms          rms(c)
DAV:   1    -0.103584858739E+03   -0.86714E-03   -0.16861E-02    60   0.777E-01    0.369E-02
RMM:   2    -0.103584864345E+03   -0.56060E-05   -0.15917E-04    60   0.783E-02    0.224E-02
RMM:   3    -0.103584869696E+03   -0.53509E-05   -0.38440E-05    49   0.351E-02
  21 F= -.10378328E+03 E0= -.10378328E+03  d E =-.841969E-03
 BRION: g(F)=  0.158E-01 g(S)=  0.000E+00 retain N=  3 mean eig= 5.91
 eig:   7.979  7.979  1.775
 bond charge predicted
       N       E                     dE             d eps       ncg     rms          rms(c)
DAV:   1    -0.103585856012E+03   -0.99167E-03   -0.28408E-02    60   0.101E+00    0.462E-02
RMM:   2    -0.103585867252E+03   -0.11240E-04   -0.28949E-04    60   0.105E-01    0.281E-02
RMM:   3    -0.103585874607E+03   -0.73552E-05   -0.66077E-05    57   0.467E-02
  22 F= -.10378425E+03 E0= -.10378425E+03  d E =-.966292E-03
 BRION: g(F)=  0.140E-01 g(S)=  0.000E+00 retain N=  2 mean eig= 6.62
 eig:   6.620  6.620
 bond charge predicted
       N       E                     dE             d eps       ncg     rms          rms(c)
DAV:   1    -0.103586718608E+03   -0.85136E-03   -0.32938E-02    60   0.109E+00    0.513E-02
RMM:   2    -0.103586732529E+03   -0.13922E-04   -0.45720E-04    60   0.126E-01    0.314E-02
RMM:   3    -0.103586734808E+03   -0.22791E-05   -0.89717E-05    59   0.551E-02
  23 F= -.10378506E+03 E0= -.10378506E+03  d E =-.810961E-03
 BRION: g(F)=  0.130E-01 g(S)=  0.000E+00 retain N=  1 mean eig= 4.17
 eig:   4.170
 bond charge predicted
       N       E                     dE             d eps       ncg     rms          rms(c)
DAV:   1    -0.103586787578E+03   -0.55049E-04   -0.94779E-03    60   0.521E-01    0.447E-02
RMM:   2    -0.103586770524E+03    0.17054E-04   -0.23430E-04    55   0.777E-02    0.226E-02
RMM:   3    -0.103586763777E+03    0.67476E-05   -0.45913E-05    48   0.353E-02
  24 F= -.10378510E+03 E0= -.10378510E+03  d E =-.426395E-04
 BRION: g(F)=  0.122E-01 g(S)=  0.000E+00 retain N=  1 mean eig= 0.58
 eig:   0.580
 bond charge predicted
       N       E                     dE             d eps       ncg     rms          rms(c)
DAV:   1    -0.103587010455E+03   -0.23993E-03   -0.52571E-03    60   0.418E-01    0.289E-02
RMM:   2    -0.103587007529E+03    0.29259E-05   -0.12290E-04    50   0.598E-02    0.152E-02
RMM:   3    -0.103587004741E+03    0.27878E-05   -0.22366E-05    45   0.260E-02
  25 F= -.10378532E+03 E0= -.10378532E+03  d E =-.224771E-03
 BRION: g(F)=  0.113E-01 g(S)=  0.000E+00 retain N=  1 mean eig= 0.80
 eig:   0.795
 bond charge predicted
       N       E                     dE             d eps       ncg     rms          rms(c)
DAV:   1    -0.103587200818E+03   -0.19329E-03   -0.35549E-03    60   0.352E-01    0.177E-02
RMM:   2    -0.103587202334E+03   -0.15165E-05   -0.61679E-05    48   0.446E-02
  26 F= -.10378552E+03 E0= -.10378552E+03  d E =-.193325E-03
 BRION: g(F)=  0.106E-01 g(S)=  0.000E+00 retain N=  2 mean eig= 3.34
 eig:   3.341  3.341
 bond charge predicted
       N       E                     dE             d eps       ncg     rms          rms(c)
DAV:   1    -0.103589269356E+03   -0.20685E-02   -0.59109E-01    60   0.451E+00    0.187E-01
RMM:   2    -0.103589638334E+03   -0.36898E-03   -0.68736E-03    60   0.486E-01    0.115E-01
RMM:   3    -0.103589741069E+03   -0.10274E-03   -0.13264E-03    61   0.215E-01    0.278E-02
RMM:   4    -0.103589775291E+03   -0.34222E-04   -0.30536E-04    65   0.971E-02    0.140E-02
RMM:   5    -0.103589778882E+03   -0.35907E-05   -0.47277E-05    49   0.398E-02
  27 F= -.10378797E+03 E0= -.10378797E+03  d E =-.245706E-02
 BRION: g(F)=  0.592E-02 g(S)=  0.000E+00
 BRIONS problems: POTIM should be increased
 retain N=  1 mean eig=13.73
 eig:  13.731
 bond charge predicted
       N       E                     dE             d eps       ncg     rms          rms(c)
DAV:   1    -0.103589554955E+03    0.22034E-03   -0.42297E-02    60   0.114E+00    0.916E-02
RMM:   2    -0.103589511978E+03    0.42977E-04   -0.10754E-03    60   0.167E-01    0.472E-02
RMM:   3    -0.103589486653E+03    0.25325E-04   -0.17895E-04    55   0.719E-02    0.241E-02
RMM:   4    -0.103589488469E+03   -0.18165E-05   -0.94326E-05    53   0.452E-02
  28 F= -.10378767E+03 E0= -.10378767E+03  d E =0.308162E-03
 BRION: g(F)=  0.654E-02 g(S)=  0.000E+00 retain N=  1 mean eig= 0.57
 eig:   0.567
 bond charge predicted
       N       E                     dE             d eps       ncg     rms          rms(c)
DAV:   1    -0.103590054025E+03   -0.56737E-03   -0.16566E-02    60   0.742E-01    0.518E-02
RMM:   2    -0.103590045295E+03    0.87305E-05   -0.37413E-04    60   0.102E-01    0.269E-02
RMM:   3    -0.103590039175E+03    0.61203E-05   -0.67032E-05    49   0.455E-02
  29 F= -.10378822E+03 E0= -.10378822E+03  d E =-.553942E-03
 BRION: g(F)=  0.384E-02 g(S)=  0.000E+00 retain N=  1 mean eig= 0.76
 eig:   0.761
 bond charge predicted
       N       E                     dE             d eps       ncg     rms          rms(c)
DAV:   1    -0.103590200766E+03   -0.15547E-03   -0.22411E-03    60   0.280E-01    0.140E-02
RMM:   2    -0.103590201979E+03   -0.12131E-05   -0.30904E-05    43   0.331E-02
  30 F= -.10378837E+03 E0= -.10378837E+03  d E =-.153287E-03
 BRION: g(F)=  0.366E-02 g(S)=  0.000E+00 retain N=  2 mean eig= 2.22
 eig:   0.950  3.485
 bond charge predicted
       N       E                     dE             d eps       ncg     rms          rms(c)
DAV:   1    -0.103590575390E+03   -0.37462E-03   -0.12124E-02    60   0.648E-01    0.287E-02
RMM:   2    -0.103590581671E+03   -0.62810E-05   -0.13622E-04    59   0.697E-02    0.178E-02
RMM:   3    -0.103590585061E+03   -0.33900E-05   -0.28134E-05    45   0.311E-02
  31 F= -.10378874E+03 E0= -.10378874E+03  d E =-.362220E-03
 BRION: g(F)=  0.362E-02 g(S)=  0.000E+00 retain N=  3 mean eig= 3.73
 eig:   0.911  5.134  5.134
 bond charge predicted
       N       E                     dE             d eps       ncg     rms          rms(c)
DAV:   1    -0.103591711637E+03   -0.11300E-02   -0.15707E-01    60   0.233E+00    0.977E-02
RMM:   2    -0.103591804800E+03   -0.93163E-04   -0.17506E-03    60   0.251E-01    0.602E-02
RMM:   3    -0.103591837124E+03   -0.32323E-04   -0.34639E-04    61   0.110E-01    0.128E-02
RMM:   4    -0.103591845611E+03   -0.84877E-05   -0.75911E-05    56   0.497E-02
  32 F= -.10378992E+03 E0= -.10378992E+03  d E =-.118188E-02
 BRION: g(F)=  0.280E-02 g(S)=  0.000E+00
 BRIONS problems: POTIM should be increased
 retain N=  1 mean eig=11.53
 eig:  11.535
 bond charge predicted
       N       E                     dE             d eps       ncg     rms          rms(c)
DAV:   1    -0.103591951179E+03   -0.11405E-03   -0.51229E-03    72   0.417E-01    0.293E-02
RMM:   2    -0.103591949540E+03    0.16381E-05   -0.12394E-04    52   0.607E-02    0.158E-02
RMM:   3    -0.103591947872E+03    0.16686E-05   -0.21765E-05    45   0.264E-02
  33 F= -.10379002E+03 E0= -.10379002E+03  d E =-.103961E-03
 BRION: g(F)=  0.290E-02 g(S)=  0.000E+00 retain N=  1 mean eig= 0.47
 eig:   0.465
 bond charge predicted
       N       E                     dE             d eps       ncg     rms          rms(c)
DAV:   1    -0.103592013175E+03   -0.63634E-04   -0.13906E-03    60   0.200E-01    0.182E-02
RMM:   2    -0.103592010545E+03    0.26300E-05   -0.36395E-05    46   0.306E-02
  34 F= -.10379008E+03 E0= -.10379008E+03  d E =-.563630E-04
 BRION: g(F)=  0.261E-02 g(S)=  0.000E+00 retain N=  1 mean eig= 0.48
 eig:   0.484
 bond charge predicted
       N       E                     dE             d eps       ncg     rms          rms(c)
DAV:   1    -0.103592098472E+03   -0.85297E-04   -0.73242E-04    82   0.161E-01    0.963E-03
RMM:   2    -0.103592098209E+03    0.26378E-06   -0.73396E-06    38   0.162E-02
  35 F= -.10379016E+03 E0= -.10379016E+03  d E =-.815590E-04
 BRION: g(F)=  0.255E-02 g(S)=  0.000E+00 retain N=  2 mean eig= 1.89
 eig:   0.319  3.464
 bond charge predicted
       N       E                     dE             d eps       ncg     rms          rms(c)
DAV:   1    -0.103592689142E+03   -0.59067E-03   -0.45944E-02    60   0.127E+00    0.573E-02
RMM:   2    -0.103592707041E+03   -0.17899E-04   -0.50035E-04    60   0.136E-01    0.353E-02
RMM:   3    -0.103592714711E+03   -0.76703E-05   -0.10955E-04    61   0.603E-02    0.898E-03
RMM:   4    -0.103592717717E+03   -0.30058E-05   -0.25298E-05    44   0.282E-02
  36 F= -.10379074E+03 E0= -.10379074E+03  d E =-.584707E-03
 BRION: g(F)=  0.271E-02 g(S)=  0.000E+00 retain N=  3 mean eig= 4.79
 eig:   0.437  6.959  6.959
 bond charge predicted
       N       E                     dE             d eps       ncg     rms          rms(c)
DAV:   1    -0.103593159162E+03   -0.44445E-03   -0.19753E-02    60   0.825E-01    0.373E-02
RMM:   2    -0.103593166781E+03   -0.76187E-05   -0.19796E-04    60   0.862E-02    0.230E-02
RMM:   3    -0.103593171226E+03   -0.44447E-05   -0.43593E-05    52   0.383E-02
  37 F= -.10379117E+03 E0= -.10379117E+03  d E =-.423189E-03
 BRION: g(F)=  0.253E-02 g(S)=  0.000E+00 retain N=  2 mean eig= 4.13
 eig:   4.130  4.130
 bond charge predicted
       N       E                     dE             d eps       ncg     rms          rms(c)
DAV:   1    -0.103592909343E+03    0.25744E-03   -0.99101E-03    60   0.592E-01    0.268E-02
RMM:   2    -0.103592912265E+03   -0.29225E-05   -0.11089E-04    59   0.631E-02    0.164E-02
RMM:   3    -0.103592913415E+03   -0.11502E-05   -0.22918E-05    41   0.275E-02
  38 F= -.10379092E+03 E0= -.10379092E+03  d E =0.243278E-03
 BRION: g(F)=  0.249E-02 g(S)=  0.000E+00 retain N=  2 mean eig= 2.94
 eig:   2.939  2.939
 bond charge predicted
       N       E                     dE             d eps       ncg     rms          rms(c)
DAV:   1    -0.103593238037E+03   -0.32577E-03   -0.11861E-02    60   0.638E-01    0.279E-02
RMM:   2    -0.103593241967E+03   -0.39300E-05   -0.10861E-04    59   0.640E-02    0.170E-02
RMM:   3    -0.103593244496E+03   -0.25290E-05   -0.24736E-05    41   0.284E-02
  39 F= -.10379123E+03 E0= -.10379123E+03  d E =-.309332E-03
 BRION: g(F)=  0.232E-02 g(S)=  0.000E+00
 BRIONS problems: POTIM should be increased
 retain N=  1 mean eig= 8.88
 eig:   8.881
 bond charge predicted
       N       E                     dE             d eps       ncg     rms          rms(c)
DAV:   1    -0.103593623524E+03   -0.38156E-03   -0.17920E-02    60   0.781E-01    0.357E-02
RMM:   2    -0.103593631022E+03   -0.74983E-05   -0.17748E-04    60   0.823E-02    0.220E-02
RMM:   3    -0.103593635451E+03   -0.44288E-05   -0.39769E-05    50   0.365E-02
  40 F= -.10379160E+03 E0= -.10379160E+03  d E =-.364436E-03
 BRION: g(F)=  0.235E-02 g(S)=  0.000E+00 retain N=  1 mean eig= 5.42
 eig:   5.424
 bond charge predicted
       N       E                     dE             d eps       ncg     rms          rms(c)
DAV:   1    -0.103593419946E+03    0.21108E-03   -0.56250E-03    60   0.439E-01    0.192E-02
RMM:   2    -0.103593421487E+03   -0.15407E-05   -0.47227E-05    54   0.422E-02
  41 F= -.10379140E+03 E0= -.10379140E+03  d E =0.198676E-03
 BRION: g(F)=  0.238E-02 g(S)=  0.000E+00 retain N=  1 mean eig= 2.33
 eig:   2.328
 bond charge predicted
       N       E                     dE             d eps       ncg     rms          rms(c)
DAV:   1    -0.103593614977E+03   -0.19503E-03   -0.44635E-03    60   0.387E-01    0.161E-02
RMM:   2    -0.103593616608E+03   -0.16311E-05   -0.40313E-05    53   0.391E-02
  42 F= -.10379158E+03 E0= -.10379158E+03  d E =-.180965E-03
 BRION: g(F)=  0.229E-02 g(S)=  0.000E+00 retain N=  2 mean eig= 6.13
 eig:   6.128  6.128
 bond charge predicted
       N       E                     dE             d eps       ncg     rms          rms(c)
DAV:   1    -0.103593996423E+03   -0.38145E-03   -0.19689E-02    60   0.822E-01    0.390E-02
RMM:   2    -0.103594002708E+03   -0.62853E-05   -0.19165E-04    60   0.855E-02    0.240E-02
RMM:   3    -0.103594007280E+03   -0.45725E-05   -0.43820E-05    55   0.380E-02
  43 F= -.10379194E+03 E0= -.10379194E+03  d E =-.364130E-03
 BRION: g(F)=  0.227E-02 g(S)=  0.000E+00 retain N=  1 mean eig= 5.27
 eig:   5.268
 bond charge predicted
       N       E                     dE             d eps       ncg     rms          rms(c)
DAV:   1    -0.103593915962E+03    0.86746E-04   -0.19444E-03    60   0.264E-01    0.136E-02
RMM:   2    -0.103593915369E+03    0.59356E-06   -0.26834E-05    43   0.298E-02
  44 F= -.10379186E+03 E0= -.10379186E+03  d E =0.878086E-04
 BRION: g(F)=  0.229E-02 g(S)=  0.000E+00 retain N=  1 mean eig= 1.20
 eig:   1.204
 bond charge predicted
       N       E                     dE             d eps       ncg     rms          rms(c)
DAV:   1    -0.103594026439E+03   -0.11048E-03   -0.15791E-03    60   0.231E-01    0.820E-03
RMM:   2    -0.103594027676E+03   -0.12366E-05   -0.15161E-05    39   0.236E-02
  45 F= -.10379196E+03 E0= -.10379196E+03  d E =-.104502E-03
 BRION: g(F)=  0.218E-02 g(S)=  0.000E+00 retain N=  2 mean eig= 4.56
 eig:   1.892  7.231
 bond charge predicted
       N       E                     dE             d eps       ncg     rms          rms(c)
DAV:   1    -0.103594333247E+03   -0.30681E-03   -0.12338E-02    60   0.647E-01    0.315E-02
RMM:   2    -0.103594336284E+03   -0.30367E-05   -0.11222E-04    60   0.657E-02    0.193E-02
RMM:   3    -0.103594339254E+03   -0.29703E-05   -0.26537E-05    43   0.294E-02
  46 F= -.10379225E+03 E0= -.10379225E+03  d E =-.289350E-03
 BRION: g(F)=  0.224E-02 g(S)=  0.000E+00 retain N=  3 mean eig= 5.86
 eig:   1.639  7.973  7.973
 bond charge predicted
       N       E                     dE             d eps       ncg     rms          rms(c)
DAV:   1    -0.103594765741E+03   -0.42946E-03   -0.28357E-02    60   0.975E-01    0.460E-02
RMM:   2    -0.103594775611E+03   -0.98692E-05   -0.26049E-04    60   0.100E-01    0.282E-02
RMM:   3    -0.103594782528E+03   -0.69176E-05   -0.61319E-05    57   0.442E-02
  47 F= -.10379266E+03 E0= -.10379266E+03  d E =-.408231E-03
 BRION: g(F)=  0.205E-02 g(S)=  0.000E+00 retain N=  2 mean eig= 6.76
 eig:   6.757  6.757
 bond charge predicted
       N       E                     dE             d eps       ncg     rms          rms(c)
DAV:   1    -0.103594750235E+03    0.25376E-04   -0.43848E-04    66   0.124E-01    0.697E-03
RMM:   2    -0.103594750063E+03    0.17162E-06   -0.71385E-06    40   0.144E-02
  48 F= -.10379263E+03 E0= -.10379263E+03  d E =0.309942E-04
 BRION: g(F)=  0.204E-02 g(S)=  0.000E+00 retain N=  2 mean eig= 4.64
 eig:   7.331  1.948
 bond charge predicted
       N       E                     dE             d eps       ncg     rms          rms(c)
DAV:   1    -0.103594862163E+03   -0.11193E-03   -0.19850E-03    60   0.260E-01    0.112E-02
RMM:   2    -0.103594863302E+03   -0.11389E-05   -0.19829E-05    40   0.272E-02
  49 F= -.10379273E+03 E0= -.10379273E+03  d E =-.105045E-03
 BRION: g(F)=  0.197E-02 g(S)=  0.000E+00 retain N=  1 mean eig= 7.11
 eig:   7.111
 bond charge predicted
       N       E                     dE             d eps       ncg     rms          rms(c)
DAV:   1    -0.103595030084E+03   -0.16792E-03   -0.48275E-03    60   0.410E-01    0.214E-02
RMM:   2    -0.103595030866E+03   -0.78136E-06   -0.51688E-05    56   0.443E-02
  50 F= -.10379288E+03 E0= -.10379288E+03  d E =-.150191E-03
 BRION: g(F)=  0.194E-02 g(S)=  0.000E+00 retain N=  1 mean eig= 4.09
 eig:   4.090
 bond charge predicted
       N       E                     dE             d eps       ncg     rms          rms(c)
DAV:   1    -0.103595017051E+03    0.13033E-04   -0.10128E-03    60   0.174E-01    0.135E-02
RMM:   2    -0.103595016623E+03    0.42811E-06   -0.27272E-05    45   0.263E-02
  51 F= -.10379287E+03 E0= -.10379287E+03  d E =0.837192E-05
 BRION: g(F)=  0.192E-02 g(S)=  0.000E+00 retain N=  1 mean eig= 0.49
 eig:   0.488
 bond charge predicted
       N       E                     dE             d eps       ncg     rms          rms(c)
DAV:   1    -0.103595065233E+03   -0.48182E-04   -0.45657E-04    60   0.128E-01    0.680E-03
RMM:   2    -0.103595065819E+03   -0.58623E-06   -0.95717E-06    40   0.172E-02
  52 F= -.10379292E+03 E0= -.10379292E+03  d E =-.437220E-04
 BRION: g(F)=  0.185E-02 g(S)=  0.000E+00 retain N=  2 mean eig= 1.58
 eig:   0.976  2.183
 bond charge predicted
       N       E                     dE             d eps       ncg     rms          rms(c)
DAV:   1    -0.103595417953E+03   -0.35272E-03   -0.22075E-02    60   0.869E-01    0.420E-02
RMM:   2    -0.103595424273E+03   -0.63200E-05   -0.20290E-04    60   0.876E-02    0.256E-02
RMM:   3    -0.103595429384E+03   -0.51103E-05   -0.44543E-05    54   0.388E-02
  53 F= -.10379325E+03 E0= -.10379325E+03  d E =-.330687E-03
 BRION: g(F)=  0.165E-02 g(S)=  0.000E+00
 BRIONS problems: POTIM should be increased
 retain N=  1 mean eig= 9.82
 eig:   9.819
 bond charge predicted
       N       E                     dE             d eps       ncg     rms          rms(c)
DAV:   1    -0.103595431723E+03   -0.74495E-05   -0.38108E-04    60   0.107E-01    0.889E-03
RMM:   2    -0.103595431304E+03    0.41857E-06   -0.11035E-05    40   0.177E-02
  54 F= -.10379325E+03 E0= -.10379325E+03  d E =-.468935E-05
 BRION: g(F)=  0.166E-02 g(S)=  0.000E+00 retain N=  1 mean eig= 0.47
 eig:   0.468
 bond charge predicted
       N       E                     dE             d eps       ncg     rms          rms(c)
DAV:   1    -0.103595463489E+03   -0.31766E-04   -0.25138E-04    60   0.947E-02    0.510E-03
RMM:   2    -0.103595463816E+03   -0.32691E-06   -0.54703E-06    38   0.129E-02
  55 F= -.10379328E+03 E0= -.10379328E+03  d E =-.285901E-04
 BRION: g(F)=  0.153E-02 g(S)=  0.000E+00 retain N=  1 mean eig= 0.72
 eig:   0.725
 bond charge predicted
       N       E                     dE             d eps       ncg     rms          rms(c)
DAV:   1    -0.103595500834E+03   -0.37345E-04   -0.26229E-04    88   0.953E-02    0.564E-03
RMM:   2    -0.103595500835E+03   -0.70168E-09   -0.22895E-06    33   0.912E-03
  56 F= -.10379332E+03 E0= -.10379332E+03  d E =-.340160E-04
 BRION: g(F)=  0.150E-02 g(S)=  0.000E+00 retain N=  2 mean eig= 2.54
 eig:   1.691  3.392
 bond charge predicted
       N       E                     dE             d eps       ncg     rms          rms(c)
DAV:   1    -0.103595694478E+03   -0.19364E-03   -0.77733E-03    60   0.517E-01    0.238E-02
RMM:   2    -0.103595697396E+03   -0.29183E-05   -0.73562E-05    57   0.522E-02
  57 F= -.10379349E+03 E0= -.10379349E+03  d E =-.178426E-03
 BRION: g(F)=  0.139E-02 g(S)=  0.000E+00 retain N=  2 mean eig= 6.20
 eig:   6.200  6.200
 bond charge predicted
       N       E                     dE             d eps       ncg     rms          rms(c)
DAV:   1    -0.103595809154E+03   -0.11468E-03   -0.25786E-03    60   0.300E-01    0.155E-02
RMM:   2    -0.103595810029E+03   -0.87531E-06   -0.27260E-05    46   0.316E-02
  58 F= -.10379360E+03 E0= -.10379360E+03  d E =-.102358E-03
 BRION: g(F)=  0.135E-02 g(S)=  0.000E+00 retain N=  2 mean eig= 4.58
 eig:   5.751  3.409
 bond charge predicted
       N       E                     dE             d eps       ncg     rms          rms(c)
DAV:   1    -0.103595861943E+03   -0.52789E-04   -0.68719E-04    72   0.157E-01    0.835E-03
RMM:   2    -0.103595862266E+03   -0.32231E-06   -0.91599E-06    36   0.178E-02
  59 F= -.10379365E+03 E0= -.10379365E+03  d E =-.487161E-04
 BRION: g(F)=  0.132E-02 g(S)=  0.000E+00 retain N=  3 mean eig= 4.52
 eig:   6.200  6.200  1.169
 bond charge predicted
       N       E                     dE             d eps       ncg     rms          rms(c)
DAV:   1    -0.103595939302E+03   -0.77358E-04   -0.13535E-03    60   0.217E-01    0.111E-02
RMM:   2    -0.103595939754E+03   -0.45220E-06   -0.14859E-05    38   0.230E-02
  60 F= -.10379371E+03 E0= -.10379371E+03  d E =-.695756E-04
 BRION: g(F)=  0.127E-02 g(S)=  0.000E+00 retain N=  3 mean eig= 4.10
 eig:   5.568  5.568  1.173
 bond charge predicted
       N       E                     dE             d eps       ncg     rms          rms(c)
DAV:   1    -0.103595964688E+03   -0.25386E-04   -0.14200E-04    72   0.716E-02    0.427E-03
RMM:   2    -0.103595964778E+03   -0.90384E-07   -0.17512E-06    32   0.794E-03
  61 F= -.10379374E+03 E0= -.10379374E+03  d E =-.227614E-04
 BRION: g(F)=  0.125E-02 g(S)=  0.000E+00 retain N=  3 mean eig= 3.53
 eig:   1.604  4.493  4.493
 bond charge predicted
       N       E                     dE             d eps       ncg     rms          rms(c)
DAV:   1    -0.103596072044E+03   -0.10736E-03   -0.31643E-03    60   0.330E-01    0.148E-02
RMM:   2    -0.103596073632E+03   -0.15878E-05   -0.33064E-05    45   0.341E-02
  62 F= -.10379384E+03 E0= -.10379384E+03  d E =-.987708E-04
 BRION: g(F)=  0.122E-02 g(S)=  0.000E+00 retain N=  2 mean eig= 5.90
 eig:   5.902  5.902
 bond charge predicted
       N       E                     dE             d eps       ncg     rms          rms(c)
DAV:   1    -0.103596182938E+03   -0.11089E-03   -0.33739E-03    60   0.342E-01    0.165E-02
RMM:   2    -0.103596184349E+03   -0.14107E-05   -0.36552E-05    46   0.358E-02
  63 F= -.10379394E+03 E0= -.10379394E+03  d E =-.997854E-04
 BRION: g(F)=  0.119E-02 g(S)=  0.000E+00 retain N=  2 mean eig= 4.91
 eig:   4.906  4.906
 bond charge predicted
       N       E                     dE             d eps       ncg     rms          rms(c)
DAV:   1    -0.103596181258E+03    0.16803E-05   -0.28951E-05    74   0.314E-02    0.203E-03
RMM:   2    -0.103596181376E+03   -0.11798E-06   -0.10183E-06    23   0.618E-03
  64 F= -.10379393E+03 E0= -.10379393E+03  d E =0.202950E-05
 BRION: g(F)=  0.120E-02 g(S)=  0.000E+00 retain N=  3 mean eig= 3.60
 eig:   4.877  4.877  1.060
 bond charge predicted
       N       E                     dE             d eps       ncg     rms          rms(c)
DAV:   1    -0.103596177602E+03    0.36563E-05   -0.47269E-06    44   0.132E-02    0.657E-04
RMM:   2    -0.103596177677E+03   -0.75117E-07   -0.76755E-08    16   0.320E-03
  65 F= -.10379393E+03 E0= -.10379393E+03  d E =0.328319E-05
 BRION: g(F)=  0.121E-02 g(S)=  0.000E+00 retain N=  4 mean eig= 3.37
 eig:   5.465  5.465  1.269  1.269
 bond charge predicted
       N       E                     dE             d eps       ncg     rms          rms(c)
DAV:   1    -0.103596198352E+03   -0.20751E-04   -0.22304E-04    72   0.864E-02    0.405E-03
RMM:   2    -0.103596198613E+03   -0.26037E-06   -0.34496E-06    33   0.993E-03
  66 F= -.10379395E+03 E0= -.10379395E+03  d E =-.196982E-04
 BRION: g(F)=  0.123E-02 g(S)=  0.000E+00 retain N=  5 mean eig= 3.27
 eig:   7.497  3.710  0.454  2.356  2.356
 bond charge predicted
       N       E                     dE             d eps       ncg     rms          rms(c)
DAV:   1    -0.103596220325E+03   -0.21973E-04   -0.40205E-04    60   0.119E-01    0.614E-03
RMM:   2    -0.103596220579E+03   -0.25329E-06   -0.55329E-06    35   0.133E-02
  67 F= -.10379397E+03 E0= -.10379397E+03  d E =-.202756E-04
 BRION: g(F)=  0.122E-02 g(S)=  0.000E+00 retain N=  2 mean eig= 1.39
 eig:   1.393  1.393
 bond charge predicted
       N       E                     dE             d eps       ncg     rms          rms(c)
DAV:   1    -0.103596222925E+03   -0.25999E-05   -0.50633E-04    60   0.126E-01    0.667E-03
RMM:   2    -0.103596223062E+03   -0.13671E-06   -0.11286E-05    37   0.178E-02
  68 F= -.10379397E+03 E0= -.10379397E+03  d E =-.422537E-06
 BRION: g(F)=  0.122E-02 g(S)=  0.000E+00 retain N=  3 mean eig= 1.68
 eig:   3.422  0.811  0.811
 bond charge predicted
       N       E                     dE             d eps       ncg     rms          rms(c)
DAV:   1    -0.103596327067E+03   -0.10414E-03   -0.46917E-03    60   0.396E-01    0.181E-02
RMM:   2    -0.103596330386E+03   -0.33193E-05   -0.56615E-05    49   0.424E-02
  69 F= -.10379407E+03 E0= -.10379407E+03  d E =-.994974E-04
 BRION: g(F)=  0.969E-03 g(S)=  0.000E+00 retain N=  1 mean eig= 5.72
 eig:   5.723
 bond charge predicted
       N       E                     dE             d eps       ncg     rms          rms(c)
DAV:   1    -0.103596421152E+03   -0.94085E-04   -0.32503E-03    60   0.333E-01    0.173E-02
RMM:   2    -0.103596422395E+03   -0.12423E-05   -0.40992E-05    47   0.369E-02
  70 F= -.10379415E+03 E0= -.10379415E+03  d E =-.826532E-04
 BRION: g(F)=  0.947E-03 g(S)=  0.000E+00 retain N=  2 mean eig= 4.60
 eig:   4.598  4.598
 bond charge predicted
       N       E                     dE             d eps       ncg     rms          rms(c)
DAV:   1    -0.103596541014E+03   -0.11986E-03   -0.62900E-03    60   0.462E-01    0.216E-02
RMM:   2    -0.103596544496E+03   -0.34830E-05   -0.75315E-05    54   0.494E-02
  71 F= -.10379427E+03 E0= -.10379427E+03  d E =-.112132E-03
 BRION: g(F)=  0.844E-03 g(S)=  0.000E+00 retain N=  2 mean eig= 4.29
 eig:   4.285  4.285
 bond charge predicted
       N       E                     dE             d eps       ncg     rms          rms(c)
DAV:   1    -0.103596590807E+03   -0.49794E-04   -0.80762E-04    66   0.169E-01    0.976E-03
RMM:   2    -0.103596591049E+03   -0.24171E-06   -0.11330E-05    40   0.195E-02
  72 F= -.10379431E+03 E0= -.10379431E+03  d E =-.424855E-04
 BRION: g(F)=  0.829E-03 g(S)=  0.000E+00 retain N=  3 mean eig= 3.69
 eig:   4.921  4.921  1.221
 bond charge predicted
       N       E                     dE             d eps       ncg     rms          rms(c)
DAV:   1    -0.103596615450E+03   -0.24643E-04   -0.23150E-04    66   0.900E-02    0.463E-03
RMM:   2    -0.103596615616E+03   -0.16557E-06   -0.32948E-06    33   0.101E-02
  73 F= -.10379433E+03 E0= -.10379433E+03  d E =-.218252E-04
 BRION: g(F)=  0.807E-03 g(S)=  0.000E+00 retain N=  3 mean eig= 3.59
 eig:   4.682  4.682  1.400
 bond charge predicted
       N       E                     dE             d eps       ncg     rms          rms(c)
DAV:   1    -0.103596678824E+03   -0.63373E-04   -0.18173E-03    60   0.250E-01    0.111E-02
RMM:   2    -0.103596679919E+03   -0.10956E-05   -0.21856E-05    41   0.266E-02
  74 F= -.10379439E+03 E0= -.10379439E+03  d E =-.579822E-04
 BRION: g(F)=  0.792E-03 g(S)=  0.000E+00 retain N=  3 mean eig= 5.44
 eig:   7.446  7.446  1.415
 bond charge predicted
       N       E                     dE             d eps       ncg     rms          rms(c)
DAV:   1    -0.103596726653E+03   -0.47830E-04   -0.96862E-04    60   0.183E-01    0.915E-03
RMM:   2    -0.103596727100E+03   -0.44642E-06   -0.12388E-05    40   0.198E-02
  75 F= -.10379443E+03 E0= -.10379443E+03  d E =-.419288E-04
 BRION: g(F)=  0.784E-03 g(S)=  0.000E+00 retain N=  3 mean eig= 4.46
 eig:   1.092  6.138  6.138
 bond charge predicted
       N       E                     dE             d eps       ncg     rms          rms(c)
DAV:   1    -0.103596759983E+03   -0.33329E-04   -0.50604E-04    66   0.133E-01    0.652E-03
RMM:   2    -0.103596760282E+03   -0.29911E-06   -0.64004E-06    32   0.144E-02
  76 F= -.10379446E+03 E0= -.10379446E+03  d E =-.299130E-04
 BRION: g(F)=  0.769E-03 g(S)=  0.000E+00 retain N=  2 mean eig= 5.86
 eig:   5.857  5.857
 bond charge predicted
       N       E                     dE             d eps       ncg     rms          rms(c)
DAV:   1    -0.103596841304E+03   -0.81321E-04   -0.34922E-03    60   0.344E-01    0.151E-02
RMM:   2    -0.103596843379E+03   -0.20749E-05   -0.41585E-05    46   0.366E-02
  77 F= -.10379453E+03 E0= -.10379453E+03  d E =-.737678E-04
 BRION: g(F)=  0.755E-03 g(S)=  0.000E+00
 BRIONS problems: POTIM should be increased
 retain N=  1 mean eig=11.03
 eig:  11.035
 bond charge predicted
       N       E                     dE             d eps       ncg     rms          rms(c)
DAV:   1    -0.103596865775E+03   -0.24471E-04   -0.22886E-04    60   0.901E-02    0.599E-03
RMM:   2    -0.103596865854E+03   -0.78407E-07   -0.34543E-06    32   0.106E-02
  78 F= -.10379455E+03 E0= -.10379455E+03  d E =-.202748E-04
 BRION: g(F)=  0.757E-03 g(S)=  0.000E+00 retain N=  1 mean eig= 0.65
 eig:   0.655
 bond charge predicted
       N       E                     dE             d eps       ncg     rms          rms(c)
DAV:   1    -0.103596866617E+03   -0.84151E-06   -0.20388E-06    36   0.888E-03    0.585E-04
RMM:   2    -0.103596866702E+03   -0.85050E-07   -0.13977E-07    15   0.308E-03
  79 F= -.10379455E+03 E0= -.10379455E+03  d E =-.651135E-06
 BRION: g(F)=  0.763E-03 g(S)=  0.000E+00 retain N=  2 mean eig= 1.94
 eig:   3.006  0.884
 bond charge predicted
       N       E                     dE             d eps       ncg     rms          rms(c)
DAV:   1    -0.103596833418E+03    0.33199E-04   -0.57704E-04    60   0.139E-01    0.579E-03
RMM:   2    -0.103596833926E+03   -0.50885E-06   -0.68182E-06    37   0.147E-02
  80 F= -.10379452E+03 E0= -.10379452E+03  d E =0.293002E-04
 BRION: g(F)=  0.816E-03 g(S)=  0.000E+00 retain N=  1 mean eig= 7.56
 eig:   7.561
 bond charge predicted
       N       E                     dE             d eps       ncg     rms          rms(c)
DAV:   1    -0.103596971898E+03   -0.13848E-03   -0.12255E-02    60   0.637E-01    0.260E-02
RMM:   2    -0.103596980240E+03   -0.83419E-05   -0.14226E-04    59   0.676E-02    0.157E-02
RMM:   3    -0.103596982609E+03   -0.23693E-05   -0.24727E-05    44   0.289E-02
  81 F= -.10379466E+03 E0= -.10379466E+03  d E =-.130345E-03
 BRION: g(F)=  0.728E-03 g(S)=  0.000E+00
 BRIONS problems: POTIM should be increased
 retain N=  1 mean eig=11.47
 eig:  11.466
 bond charge predicted
       N       E                     dE             d eps       ncg     rms          rms(c)
DAV:   1    -0.103597005724E+03   -0.25484E-04   -0.72354E-04    66   0.156E-01    0.984E-03
RMM:   2    -0.103597005843E+03   -0.11865E-06   -0.16181E-05    40   0.220E-02
  82 F= -.10379468E+03 E0= -.10379468E+03  d E =-.229155E-04
 BRION: g(F)=  0.767E-03 g(S)=  0.000E+00 retain N=  1 mean eig= 0.48
 eig:   0.483
 bond charge predicted
       N       E                     dE             d eps       ncg     rms          rms(c)
DAV:   1    -0.103597007538E+03   -0.18138E-05   -0.12511E-04    60   0.605E-02    0.425E-03
RMM:   2    -0.103597007681E+03   -0.14309E-06   -0.36062E-06    30   0.950E-03
  83 F= -.10379468E+03 E0= -.10379468E+03  d E =-.642432E-06
 BRION: g(F)=  0.677E-03 g(S)=  0.000E+00 retain N=  1 mean eig= 0.49
 eig:   0.492
 bond charge predicted
       N       E                     dE             d eps       ncg     rms          rms(c)
DAV:   1    -0.103597020593E+03   -0.13055E-04   -0.10354E-04    60   0.586E-02    0.303E-03
RMM:   2    -0.103597020648E+03   -0.54647E-07   -0.13970E-06    31   0.659E-03
  84 F= -.10379469E+03 E0= -.10379469E+03  d E =-.113458E-04
 BRION: g(F)=  0.655E-03 g(S)=  0.000E+00 retain N=  2 mean eig= 3.24
 eig:   0.582  5.898
 bond charge predicted
       N       E                     dE             d eps       ncg     rms          rms(c)
DAV:   1    -0.103597114941E+03   -0.94348E-04   -0.61613E-03    60   0.451E-01    0.192E-02
RMM:   2    -0.103597118926E+03   -0.39855E-05   -0.73080E-05    52   0.478E-02
  85 F= -.10379478E+03 E0= -.10379478E+03  d E =-.864766E-04
 BRION: g(F)=  0.639E-03 g(S)=  0.000E+00 retain N=  2 mean eig= 6.36
 eig:   6.359  6.359
 bond charge predicted
       N       E                     dE             d eps       ncg     rms          rms(c)
DAV:   1    -0.103597153817E+03   -0.38876E-04   -0.95356E-04    60   0.182E-01    0.105E-02
RMM:   2    -0.103597154135E+03   -0.31802E-06   -0.14820E-05    40   0.215E-02
  86 F= -.10379481E+03 E0= -.10379481E+03  d E =-.324673E-04
 BRION: g(F)=  0.645E-03 g(S)=  0.000E+00 retain N=  3 mean eig= 5.61
 eig:   7.962  7.962  0.910
 bond charge predicted
       N       E                     dE             d eps       ncg     rms          rms(c)
DAV:   1    -0.103597243126E+03   -0.89309E-04   -0.58002E-03    60   0.438E-01    0.197E-02
RMM:   2    -0.103597246619E+03   -0.34928E-05   -0.71369E-05    50   0.471E-02
  87 F= -.10379489E+03 E0= -.10379489E+03  d E =-.805839E-04
 BRION: g(F)=  0.589E-03 g(S)=  0.000E+00 retain N=  1 mean eig= 5.22
 eig:   5.223
 bond charge predicted
       N       E                     dE             d eps       ncg     rms          rms(c)
DAV:   1    -0.103597255426E+03   -0.12300E-04   -0.53735E-05    82   0.437E-02    0.504E-03
RMM:   2    -0.103597255317E+03    0.10892E-06   -0.10233E-06    29   0.578E-03
  88 F= -.10379490E+03 E0= -.10379490E+03  d E =-.749766E-05
 BRION: g(F)=  0.608E-03 g(S)=  0.000E+00 retain N=  2 mean eig= 3.03
 eig:   5.650  0.411
 bond charge predicted
       N       E                     dE             d eps       ncg     rms          rms(c)
DAV:   1    -0.103597253661E+03    0.17649E-05   -0.34622E-06    44   0.105E-02    0.721E-04
RMM:   2    -0.103597253788E+03   -0.12694E-06   -0.41883E-08    14   0.277E-03
  89 F= -.10379490E+03 E0= -.10379490E+03  d E =0.121229E-05
 BRION: g(F)=  0.605E-03 g(S)=  0.000E+00 retain N=  3 mean eig= 2.28
 eig:   3.117  3.117  0.608
 bond charge predicted
       N       E                     dE             d eps       ncg     rms          rms(c)
DAV:   1    -0.103597272202E+03   -0.18541E-04   -0.28247E-04    72   0.965E-02    0.433E-03
RMM:   2    -0.103597272420E+03   -0.21762E-06   -0.41160E-06    32   0.111E-02
  90 F= -.10379491E+03 E0= -.10379491E+03  d E =-.152476E-04
 BRION: g(F)=  0.619E-03 g(S)=  0.000E+00 retain N=  3 mean eig= 1.30
 eig:   0.893  1.105  1.892
 bond charge predicted
       N       E                     dE             d eps       ncg     rms          rms(c)
DAV:   1    -0.103597272764E+03   -0.56139E-06   -0.64897E-06    44   0.149E-02    0.130E-03
RMM:   2    -0.103597272863E+03   -0.99833E-07   -0.17867E-07    17   0.358E-03
  91 F= -.10379491E+03 E0= -.10379491E+03  d E =-.648742E-06
 BRION: g(F)=  0.639E-03 g(S)=  0.000E+00 retain N=  4 mean eig= 2.32
 eig:   2.582  2.582  1.102  3.013
 bond charge predicted
       N       E                     dE             d eps       ncg     rms          rms(c)
DAV:   1    -0.103597242570E+03    0.30194E-04   -0.68998E-04    60   0.152E-01    0.683E-03
RMM:   2    -0.103597243204E+03   -0.63458E-06   -0.10006E-05    38   0.174E-02
  92 F= -.10379489E+03 E0= -.10379489E+03  d E =0.238155E-04
 BRION: g(F)=  0.634E-03 g(S)=  0.000E+00 retain N=  2 mean eig= 3.34
 eig:   0.594  6.079
 bond charge predicted
       N       E                     dE             d eps       ncg     rms          rms(c)
DAV:   1    -0.103597233344E+03    0.92261E-05   -0.20450E-04    66   0.806E-02    0.606E-03
RMM:   2    -0.103597233403E+03   -0.59401E-07   -0.45343E-06    37   0.108E-02
  93 F= -.10379488E+03 E0= -.10379488E+03  d E =0.660195E-05
 BRION: g(F)=  0.578E-03 g(S)=  0.000E+00 retain N=  3 mean eig= 2.40
 eig:   5.600  0.349  1.242
 bond charge predicted
       N       E                     dE             d eps       ncg     rms          rms(c)
DAV:   1    -0.103597230216E+03    0.31273E-05   -0.17772E-04    60   0.797E-02    0.507E-03
RMM:   2    -0.103597230181E+03    0.35317E-07   -0.39955E-06    35   0.112E-02
  94 F= -.10379488E+03 E0= -.10379488E+03  d E =0.290979E-05
 BRION: g(F)=  0.501E-03 g(S)=  0.000E+00 retain N=  3 mean eig= 2.76
 eig:   1.893  3.197  3.197
 bond charge predicted
       N       E                     dE             d eps       ncg     rms          rms(c)
DAV:   1    -0.103597238542E+03   -0.83254E-05   -0.17183E-04    60   0.753E-02    0.327E-03
RMM:   2    -0.103597238724E+03   -0.18221E-06   -0.25369E-06    34   0.886E-03
  95 F= -.10379489E+03 E0= -.10379489E+03  d E =-.832558E-05
 BRION: g(F)=  0.468E-03 g(S)=  0.000E+00 retain N=  3 mean eig= 5.10
 eig:   1.545  6.884  6.884
 bond charge predicted
       N       E                     dE             d eps       ncg     rms          rms(c)
DAV:   1    -0.103597248348E+03   -0.98060E-05   -0.10731E-04    66   0.590E-02    0.292E-03
RMM:   2    -0.103597248394E+03   -0.46312E-07   -0.16403E-06    27   0.699E-03
  96 F= -.10379490E+03 E0= -.10379490E+03  d E =-.844836E-05
 BRION: g(F)=  0.461E-03 g(S)=  0.000E+00 retain N=  3 mean eig= 3.16
 eig:   1.416  4.028  4.028
 bond charge predicted
       N       E                     dE             d eps       ncg     rms          rms(c)
DAV:   1    -0.103597260142E+03   -0.11795E-04   -0.12498E-04    60   0.639E-02    0.303E-03
RMM:   2    -0.103597260231E+03   -0.88388E-07   -0.18284E-06    31   0.741E-03
  97 F= -.10379491E+03 E0= -.10379491E+03  d E =-.108100E-04
 BRION: g(F)=  0.447E-03 g(S)=  0.000E+00 retain N=  3 mean eig= 4.83
 eig:   6.977  6.977  0.537
 bond charge predicted
       N       E                     dE             d eps       ncg     rms          rms(c)
DAV:   1    -0.103597286451E+03   -0.26309E-04   -0.59172E-04    60   0.138E-01    0.605E-03
RMM:   2    -0.103597286852E+03   -0.40066E-06   -0.78659E-06    34   0.151E-02
  98 F= -.10379493E+03 E0= -.10379493E+03  d E =-.235364E-04
 BRION: g(F)=  0.443E-03 g(S)=  0.000E+00 retain N=  3 mean eig= 3.23
 eig:   4.201  4.201  1.281
 bond charge predicted
       N       E                     dE             d eps       ncg     rms          rms(c)
DAV:   1    -0.103597301270E+03   -0.14819E-04   -0.17340E-04    66   0.757E-02    0.395E-03
RMM:   2    -0.103597301343E+03   -0.73379E-07   -0.24245E-06    31   0.850E-03
  99 F= -.10379494E+03 E0= -.10379494E+03  d E =-.129844E-04
 BRION: g(F)=  0.442E-03 g(S)=  0.000E+00 retain N=  3 mean eig= 2.13
 eig:   2.806  2.806  0.778
 bond charge predicted
       N       E                     dE             d eps       ncg     rms          rms(c)
DAV:   1    -0.103597325242E+03   -0.23972E-04   -0.48213E-04    60   0.125E-01    0.543E-03
RMM:   2    -0.103597325574E+03   -0.33191E-06   -0.63968E-06    34   0.137E-02
 100 F= -.10379496E+03 E0= -.10379496E+03  d E =-.213458E-04
 BRION: g(F)=  0.433E-03 g(S)=  0.000E+00
 BRIONS problems: POTIM should be increased
 retain N=  1 mean eig=10.85
 eig:  10.847
 bond charge predicted
       N       E                     dE             d eps       ncg     rms          rms(c)
DAV:   1    -0.103597369113E+03   -0.43871E-04   -0.17034E-03    60   0.236E-01    0.105E-02
RMM:   2    -0.103597370206E+03   -0.10928E-05   -0.21879E-05    41   0.256E-02
 101 F= -.10379500E+03 E0= -.10379500E+03  d E =-.396119E-04
 BRION: g(F)=  0.427E-03 g(S)=  0.000E+00
 BRIONS problems: POTIM should be increased
 retain N=  1 mean eig= 9.70
 eig:   9.698
 bond charge predicted
       N       E                     dE             d eps       ncg     rms          rms(c)
DAV:   1    -0.103597380114E+03   -0.11001E-04   -0.81122E-05    60   0.534E-02    0.388E-03
RMM:   2    -0.103597380079E+03    0.35312E-07   -0.16721E-06    30   0.708E-03
 102 F= -.10379501E+03 E0= -.10379501E+03  d E =-.813935E-05
 BRION: g(F)=  0.431E-03 g(S)=  0.000E+00 retain N=  1 mean eig= 0.33
 eig:   0.331
 bond charge predicted
       N       E                     dE             d eps       ncg     rms          rms(c)
DAV:   1    -0.103597383182E+03   -0.30683E-05   -0.11542E-05    50   0.202E-02    0.141E-03
RMM:   2    -0.103597383231E+03   -0.48770E-07   -0.35113E-07    18   0.460E-03
 103 F= -.10379501E+03 E0= -.10379501E+03  d E =-.301994E-05
 BRION: g(F)=  0.434E-03 g(S)=  0.000E+00 retain N=  2 mean eig= 4.16
 eig:   0.657  7.656
 bond charge predicted
       N       E                     dE             d eps       ncg     rms          rms(c)
DAV:   1    -0.103597332980E+03    0.50202E-04   -0.19861E-03    60   0.251E-01    0.102E-02
RMM:   2    -0.103597334614E+03   -0.16340E-05   -0.24317E-05    42   0.268E-02
 104 F= -.10379497E+03 E0= -.10379497E+03  d E =0.429420E-04
 BRION: g(F)=  0.482E-03 g(S)=  0.000E+00 retain N=  1 mean eig= 7.81
 eig:   7.805
 bond charge predicted
       N       E                     dE             d eps       ncg     rms          rms(c)
DAV:   1    -0.103597445268E+03   -0.11229E-03   -0.13765E-02    60   0.663E-01    0.259E-02
RMM:   2    -0.103597455661E+03   -0.10393E-04   -0.16259E-04    59   0.702E-02    0.156E-02
RMM:   3    -0.103597458199E+03   -0.25381E-05   -0.26771E-05    44   0.298E-02
 105 F= -.10379508E+03 E0= -.10379508E+03  d E =-.109363E-03
 BRION: g(F)=  0.413E-03 g(S)=  0.000E+00
 BRIONS problems: POTIM should be increased
 retain N=  1 mean eig=20.53
 eig:  20.527
 bond charge predicted
       N       E                     dE             d eps       ncg     rms          rms(c)
DAV:   1    -0.103597537612E+03   -0.81951E-04   -0.72546E-03    60   0.484E-01    0.205E-02
RMM:   2    -0.103597543094E+03   -0.54823E-05   -0.96894E-05    54   0.545E-02
 106 F= -.10379515E+03 E0= -.10379515E+03  d E =-.732707E-04
 BRION: g(F)=  0.458E-03 g(S)=  0.000E+00 retain N=  1 mean eig= 1.00
 eig:   1.001
 bond charge predicted
       N       E                     dE             d eps       ncg     rms          rms(c)
DAV:   1    -0.103597498567E+03    0.39045E-04   -0.20767E-03    66   0.255E-01    0.878E-03
RMM:   2    -0.103597500475E+03   -0.19077E-05   -0.22081E-05    41   0.264E-02
 107 F= -.10379512E+03 E0= -.10379512E+03  d E =0.362362E-04
 BRION: g(F)=  0.418E-03 g(S)=  0.000E+00 retain N=  1 mean eig= 1.67
 eig:   1.667
 bond charge predicted
       N       E                     dE             d eps       ncg     rms          rms(c)
DAV:   1    -0.103597523208E+03   -0.24640E-04   -0.55661E-04    60   0.132E-01    0.383E-03
RMM:   2    -0.103597523788E+03   -0.58050E-06   -0.60802E-06    36   0.138E-02
 108 F= -.10379514E+03 E0= -.10379514E+03  d E =-.205972E-04
 BRION: g(F)=  0.386E-03 g(S)=  0.000E+00 retain N=  2 mean eig= 4.35
 eig:   4.353  4.353
 reached required accuracy - stopping structural energy minimisation
