<?xml version="1.0" encoding="ISO-8859-1"?>
<modeling>
 <generator>
  <i name="program" type="string">vasp </i>
  <i name="version" type="string">6.3.2  </i>
  <i name="subversion" type="string">27Jun22 (build Oct 05 2023 17:59:42) gamma-only                       parallel </i>
  <i name="platform" type="string">LinuxIFC </i>
  <i name="date" type="string">2024 04 05 </i>
  <i name="time" type="string">18:28:44 </i>
 </generator>
 <incar>
  <i type="string" name="PREC">NORMAL</i>
  <i type="string" name="ALGO">Fast</i>
  <i type="int" name="ISPIN">     1</i>
  <i type="int" name="IBRION">     1</i>
  <i name="EDIFF">      0.00001000</i>
  <i name="EDIFFG">     -0.05000000</i>
  <i type="int" name="NSW">  5000</i>
  <i name="ENCUT">    400.00000000</i>
  <i name="POTIM">      0.10000000</i>
  <i type="int" name="ISMEAR">     0</i>
  <i name="SIGMA">      0.05000000</i>
  <i type="logical" name="LWAVE"> F  </i>
  <i type="logical" name="LCHARG"> F  </i>
  <i type="string" name="GGA">PE</i>
  <i type="int" name="IVDW">    11</i>
  <i name="SPRING">     -5.00000000</i>
 </incar>
 <primitive_cell>
  <structure name="primitive_cell" >
   <crystal>
    <varray name="basis" >
     <v>      15.40225029       0.00000000       0.00000000 </v>
     <v>       0.00000000      15.40225029       0.00000000 </v>
     <v>       0.00000000       0.00000000      15.40225029 </v>
    </varray>
    <i name="volume">   3653.86527022 </i>
    <varray name="rec_basis" >
     <v>       0.06492558       0.00000000       0.00000000 </v>
     <v>       0.00000000       0.06492558       0.00000000 </v>
     <v>       0.00000000       0.00000000       0.06492558 </v>
    </varray>
   </crystal>
   <varray name="positions" >
    <v>       0.34246901       0.43796370       0.56756027 </v>
    <v>       0.33892834       0.52479466       0.57159380 </v>
    <v>       0.41625752       0.58180086       0.56019453 </v>
    <v>       0.42293719       0.39037574       0.54268955 </v>
    <v>       0.50463045       0.44616057       0.55563018 </v>
    <v>       0.48911458       0.53385738       0.51222543 </v>
    <v>       0.56779668       0.58564377       0.50880920 </v>
    <v>       0.28392917       0.40010788       0.57897407 </v>
    <v>       0.42729890       0.32859280       0.57785319 </v>
    <v>       0.42194152       0.37248569       0.47366945 </v>
    <v>       0.27763973       0.55661891       0.58672164 </v>
    <v>       0.44276400       0.60244023       0.62297729 </v>
    <v>       0.39908005       0.64229137       0.52685350 </v>
    <v>       0.56197458       0.41407966       0.52853393 </v>
    <v>       0.51768592       0.45714796       0.62431951 </v>
    <v>       0.46832578       0.52199287       0.44533076 </v>
    <v>       0.63131225       0.62681195       0.50784542 </v>
   </varray>
  </structure>
  <varray name="primitive_index" >
   <v type="int" >        1 </v>
   <v type="int" >        2 </v>
   <v type="int" >        3 </v>
   <v type="int" >        4 </v>
   <v type="int" >        5 </v>
   <v type="int" >        6 </v>
   <v type="int" >        7 </v>
   <v type="int" >        8 </v>
   <v type="int" >        9 </v>
   <v type="int" >       10 </v>
   <v type="int" >       11 </v>
   <v type="int" >       12 </v>
   <v type="int" >       13 </v>
   <v type="int" >       14 </v>
   <v type="int" >       15 </v>
   <v type="int" >       16 </v>
   <v type="int" >       17 </v>
  </varray>
 </primitive_cell>
 <kpoints>
  <generation param="Monkhorst-Pack">
   <v type="int" name="divisions">       1        1        1 </v>
   <v name="usershift">      0.00000000       0.00000000       0.00000000 </v>
   <v name="genvec1">      1.00000000       0.00000000       0.00000000 </v>
   <v name="genvec2">      0.00000000       1.00000000       0.00000000 </v>
   <v name="genvec3">      0.00000000       0.00000000       1.00000000 </v>
   <v name="shift">      0.00000000       0.00000000       0.00000000 </v>
  </generation>
  <varray name="kpointlist" >
   <v>       0.00000000       0.00000000       0.00000000 </v>
  </varray>
  <varray name="weights" >
   <v>       1.00000000 </v>
  </varray>
 </kpoints>
 <parameters>
  <separator name="general" >
   <i type="string" name="SYSTEM">unknown system</i>
   <i type="logical" name="LCOMPAT"> F  </i>
  </separator>
  <separator name="electronic" >
   <i type="string" name="PREC">normal</i>
   <i name="ENMAX">    400.00000000</i>
   <i name="ENAUG">    644.87300000</i>
   <i name="EDIFF">      0.00001000</i>
   <i type="int" name="IALGO">    68</i>
   <i type="int" name="IWAVPR">    11</i>
   <i type="int" name="NBANDS">    30</i>
   <i type="int" name="NBANDSLOW">    -1</i>
   <i type="int" name="NBANDSHIGH">    -1</i>
   <i name="NELECT">     42.00000000</i>
   <i type="int" name="TURBO">     0</i>
   <i type="int" name="IRESTART">     0</i>
   <i type="int" name="NREBOOT">     0</i>
   <i type="int" name="NMIN">     0</i>
   <i name="EREF">      0.00000000</i>
   <separator name="electronic smearing" >
    <i type="int" name="ISMEAR">     0</i>
    <i name="SIGMA">      0.05000000</i>
    <i name="KSPACING">      0.50000000</i>
    <i type="logical" name="KGAMMA"> T  </i>
    <i type="logical" name="KBLOWUP"> T  </i>
   </separator>
   <separator name="electronic projectors" >
    <i type="logical" name="LREAL"> F  </i>
    <v name="ROPT">      0.00000000      0.00000000      0.00000000</v>
    <i type="int" name="LMAXPAW">  -100</i>
    <i type="int" name="LMAXMIX">     2</i>
    <i type="logical" name="NLSPLINE"> F  </i>
   </separator>
   <separator name="electronic startup" >
    <i type="int" name="ISTART">     0</i>
    <i type="int" name="ICHARG">     2</i>
    <i type="int" name="INIWAV">     1</i>
   </separator>
   <separator name="electronic spin" >
    <i type="int" name="ISPIN">     1</i>
    <i type="logical" name="LNONCOLLINEAR"> F  </i>
    <v name="MAGMOM">      1.00000000      1.00000000      1.00000000      1.00000000      1.00000000      1.00000000      1.00000000      1.00000000      1.00000000      1.00000000      1.00000000      1.00000000      1.00000000      1.00000000      1.00000000      1.00000000      1.00000000</v>
    <i name="NUPDOWN">     -1.00000000</i>
    <i type="logical" name="LSORBIT"> F  </i>
    <v name="SAXIS">      0.00000000      0.00000000      1.00000000</v>
    <i type="logical" name="LSPIRAL"> F  </i>
    <v name="QSPIRAL">      0.00000000      0.00000000      0.00000000</v>
    <i type="logical" name="LZEROZ"> F  </i>
   </separator>
   <separator name="electronic exchange-correlation" >
    <i type="logical" name="LASPH"> F  </i>
    <i type="logical" name="LMETAGGA"> F  </i>
   </separator>
   <separator name="electronic convergence" >
    <i type="int" name="NELM">    60</i>
    <i type="int" name="NELMDL">    -5</i>
    <i type="int" name="NELMIN">     2</i>
    <i name="ENINI">    400.00000000</i>
    <separator name="electronic convergence detail" >
     <i type="logical" name="LDIAG"> T  </i>
     <i type="logical" name="LSUBROT"> F  </i>
     <i name="WEIMIN">      0.00100000</i>
     <i name="EBREAK">      0.00000008</i>
     <i name="DEPER">      0.30000000</i>
     <i type="int" name="NRMM">     4</i>
     <i name="TIME">      0.40000000</i>
    </separator>
   </separator>
   <separator name="electronic mixer" >
    <i name="AMIX">      0.40000000</i>
    <i name="BMIX">      1.00000000</i>
    <i name="AMIN">      0.10000000</i>
    <i name="AMIX_MAG">      1.60000000</i>
    <i name="BMIX_MAG">      1.00000000</i>
    <separator name="electronic mixer details" >
     <i type="int" name="IMIX">     4</i>
     <i type="logical" name="MIXFIRST"> F  </i>
     <i type="int" name="MAXMIX">   -45</i>
     <i name="WC">    100.00000000</i>
     <i type="int" name="INIMIX">     1</i>
     <i type="int" name="MIXPRE">     1</i>
     <i type="int" name="MREMOVE">     5</i>
    </separator>
   </separator>
   <separator name="electronic dipolcorrection" >
    <i type="logical" name="LDIPOL"> F  </i>
    <i type="logical" name="LMONO"> F  </i>
    <i type="int" name="IDIPOL">     0</i>
    <i name="EPSILON">      1.00000000</i>
    <v name="DIPOL">   -100.00000000   -100.00000000   -100.00000000</v>
    <i name="EFIELD">      0.00000000</i>
   </separator>
  </separator>
  <separator name="grids" >
   <i type="int" name="NGX">    80</i>
   <i type="int" name="NGY">    80</i>
   <i type="int" name="NGZ">    80</i>
   <i type="int" name="NGXF">   160</i>
   <i type="int" name="NGYF">   160</i>
   <i type="int" name="NGZF">   160</i>
   <i type="logical" name="ADDGRID"> F  </i>
  </separator>
  <separator name="ionic" >
   <i type="int" name="NSW">  5000</i>
   <i type="int" name="IBRION">     1</i>
   <i type="int" name="MDALGO">     0</i>
   <i type="int" name="ISIF">     2</i>
   <i name="PSTRESS">      0.00000000</i>
   <i name="EDIFFG">     -0.05000000</i>
   <i type="int" name="NFREE">     0</i>
   <i name="POTIM">      0.10000000</i>
   <i name="SMASS">     -3.00000000</i>
   <i name="SCALEE">      1.00000000</i>
  </separator>
  <separator name="ionic md" >
   <i name="TEBEG">      0.00010000</i>
   <i name="TEEND">      0.00010000</i>
   <i type="int" name="NBLOCK">     1</i>
   <i type="int" name="KBLOCK">  5000</i>
   <i type="int" name="NPACO">   256</i>
   <i name="APACO">     10.00000000</i>
  </separator>
  <separator name="symmetry" >
   <i type="int" name="ISYM">     2</i>
   <i name="SYMPREC">      0.00001000</i>
  </separator>
  <separator name="dos" >
   <i type="int" name="LORBIT">     0</i>
   <v name="RWIGS">     -1.00000000     -1.00000000     -1.00000000</v>
   <i type="int" name="NEDOS">   301</i>
   <i name="EMIN">     10.00000000</i>
   <i name="EMAX">    -10.00000000</i>
   <i name="EFERMI">      0.00000000</i>
  </separator>
  <separator name="writing" >
   <i type="int" name="NWRITE">     2</i>
   <i type="logical" name="LWAVE"> F  </i>
   <i type="logical" name="LDOWNSAMPLE"> F  </i>
   <i type="logical" name="LCHARG"> F  </i>
   <i type="logical" name="LPARD"> F  </i>
   <i type="logical" name="LVTOT"> F  </i>
   <i type="logical" name="LVHAR"> F  </i>
   <i type="logical" name="LELF"> F  </i>
   <i type="logical" name="LOPTICS"> F  </i>
   <v name="STM">      0.00000000      0.00000000      0.00000000      0.00000000      0.00000000      0.00000000      0.00000000</v>
  </separator>
  <separator name="performance" >
   <i type="int" name="NPAR">     2</i>
   <i type="int" name="NSIM">     4</i>
   <i type="int" name="NBLK">    -1</i>
   <i type="logical" name="LPLANE"> T  </i>
   <i type="logical" name="LSCALAPACK"> T  </i>
   <i type="logical" name="LSCAAWARE"> F  </i>
   <i type="logical" name="LSCALU"> F  </i>
   <i type="logical" name="LASYNC"> F  </i>
   <i type="logical" name="LORBITALREAL"> F  </i>
  </separator>
  <separator name="miscellaneous" >
   <i type="int" name="IDIOT">     3</i>
   <i type="int" name="PHON_NSTRUCT">    -1</i>
   <i type="logical" name="LMUSIC"> F  </i>
   <v name="POMASS">     12.01100000      1.00000000     14.00100000</v>
   <v name="DARWINR">      0.00000000      0.00000000      0.00000000</v>
   <v name="DARWINV">      1.00000000      1.00000000      1.00000000</v>
   <i type="logical" name="LCORR"> T  </i>
  </separator>
  <i type="logical" name="GGA_COMPAT"> T  </i>
  <i type="logical" name="LBERRY"> F  </i>
  <i type="int" name="ICORELEVEL">     0</i>
  <i type="logical" name="LDAU"> F  </i>
  <i type="int" name="I_CONSTRAINED_M">     0</i>
  <separator name="electronic exchange-correlation" >
   <i type="string" name="GGA">PE</i>
   <i type="int" name="VOSKOWN">     0</i>
   <i type="logical" name="LHFCALC"> F  </i>
   <i type="string" name="PRECFOCK"></i>
   <i type="logical" name="LSYMGRAD"> F  </i>
   <i type="logical" name="LHFONE"> F  </i>
   <i type="logical" name="LRHFCALC"> F  </i>
   <i type="logical" name="LTHOMAS"> F  </i>
   <i type="logical" name="LMODELHF"> F  </i>
   <i type="logical" name="LFOCKACE"> F  </i>
   <i name="ENCUT4O">     -1.00000000</i>
   <i type="int" name="EXXOEP">     0</i>
   <i type="int" name="FOURORBIT">     0</i>
   <i name="AEXX">      0.00000000</i>
   <i name="HFALPHA">      0.00000000</i>
   <i name="MCALPHA">      0.00000000</i>
   <i name="ALDAX">      1.00000000</i>
   <i name="AGGAX">      1.00000000</i>
   <i name="ALDAC">      1.00000000</i>
   <i name="AGGAC">      1.00000000</i>
   <i type="int" name="NKREDX">     1</i>
   <i type="int" name="NKREDY">     1</i>
   <i type="int" name="NKREDZ">     1</i>
   <i type="logical" name="SHIFTRED"> F  </i>
   <i type="logical" name="ODDONLY"> F  </i>
   <i type="logical" name="EVENONLY"> F  </i>
   <i type="int" name="LMAXFOCK">     0</i>
   <i type="int" name="NMAXFOCKAE">     0</i>
   <i type="logical" name="LFOCKAEDFT"> F  </i>
   <i name="HFSCREEN">      0.00000000</i>
   <i name="HFSCREENC">      0.00000000</i>
   <i type="int" name="NBANDSGWLOW">     0</i>
  </separator>
  <separator name="vdW DFT" >
   <i type="logical" name="LUSE_VDW"> F  </i>
   <i name="Zab_VDW">     -0.84910000</i>
   <i name="PARAM1">      0.12340000</i>
   <i name="PARAM2">      1.00000000</i>
   <i name="PARAM3">      0.00000000</i>
  </separator>
  <separator name="model GW" >
   <i type="int" name="MODEL_GW">     0</i>
   <i name="MODEL_EPS0">    128.95995071</i>
   <i name="MODEL_ALPHA">      1.00000000</i>
  </separator>
  <separator name="linear response parameters" >
   <i type="logical" name="LEPSILON"> F  </i>
   <i type="logical" name="LRPA"> F  </i>
   <i type="logical" name="LNABLA"> F  </i>
   <i type="logical" name="LVEL"> F  </i>
   <i name="CSHIFT">      0.10000000</i>
   <i name="OMEGAMAX">     -1.00000000</i>
   <i name="DEG_THRESHOLD">      0.00200000</i>
   <i name="RTIME">     -0.10000000</i>
   <i name="WPLASMAI">      0.00000000</i>
   <v name="DFIELD">      0.00000000      0.00000000      0.00000000</v>
   <v name="WPLASMA">      0.00000000      0.00000000      0.00000000      0.00000000      0.00000000      0.00000000      0.00000000      0.00000000      0.00000000</v>
  </separator>
  <separator name="orbital magnetization" >
   <i type="logical" name="NUCIND"> F  </i>
   <v name="MAGPOS">      0.00000000      0.00000000      0.00000000</v>
   <i type="logical" name="LNICSALL"> T  </i>
   <i type="logical" name="ORBITALMAG"> F  </i>
   <i type="logical" name="LMAGBLOCH"> F  </i>
   <i type="logical" name="LCHIMAG"> F  </i>
   <i type="logical" name="LGAUGE"> T  </i>
   <i type="int" name="MAGATOM">     0</i>
   <v name="MAGDIPOL">      0.00000000      0.00000000      0.00000000</v>
   <v name="AVECCONST">      0.00000000      0.00000000      0.00000000</v>
  </separator>
  <separator name="response functions" >
   <i type="logical" name="LFINITE_TEMPERATURE"> F  </i>
   <i type="logical" name="LADDER"> F  </i>
   <i type="logical" name="LRPAFORCE"> F  </i>
   <i type="logical" name="LFXC"> F  </i>
   <i type="logical" name="LHARTREE"> T  </i>
   <i type="int" name="IBSE">     0</i>
   <v type="int" name="KPOINT">    -1     0     0     0</v>
   <i type="logical" name="LTCTC"> F  </i>
   <i type="logical" name="LTCTE"> F  </i>
   <i type="logical" name="LTETE"> F  </i>
   <i type="logical" name="LTRIPLET"> F  </i>
   <i type="logical" name="LFXCEPS"> F  </i>
   <i type="logical" name="LFXHEG"> F  </i>
   <i type="int" name="NATURALO">     2</i>
   <i type="logical" name="LHOLEGF"> F  </i>
   <i type="logical" name="L2ORDER"> F  </i>
   <i type="logical" name="LDMP1"> F  </i>
   <i type="logical" name="LMP2LT"> F  </i>
   <i type="logical" name="LSMP2LT"> F  </i>
   <i type="logical" name="LGWLF"> F  </i>
   <i name="ENCUTGW">     -2.00000000</i>
   <i name="ENCUTGWSOFT">     -2.00000000</i>
   <i name="ENCUTLF">     -1.00000000</i>
   <i type="logical" name="LESF_SPLINES"> F  </i>
   <i type="int" name="LMAXMP2">    -1</i>
   <i name="SCISSOR">      0.00000000</i>
   <i type="int" name="NOMEGA">     0</i>
   <i type="int" name="NOMEGAR">     0</i>
   <i type="int" name="NBANDSGW">    -1</i>
   <i type="int" name="NBANDSO">    -1</i>
   <i type="int" name="NBANDSV">    -1</i>
   <i type="int" name="NELMGW">     1</i>
   <i type="int" name="NELMHF">     1</i>
   <i type="int" name="DIM">     3</i>
   <i type="int" name="IESPILON">     4</i>
   <i type="int" name="ANTIRES">     0</i>
   <i name="OMEGAMAX">    -30.00000000</i>
   <i name="OMEGAMIN">    -30.00000000</i>
   <i name="OMEGATL">   -200.00000000</i>
   <i type="int" name="OMEGAGRID">     0</i>
   <i name="CSHIFT">     -0.10000000</i>
   <i type="logical" name="LSELFENERGY"> F  </i>
   <i type="logical" name="LSPECTRAL"> F  </i>
   <i type="logical" name="LSPECTRALGW"> F  </i>
   <i type="logical" name="LSINGLES"> F  </i>
   <i type="logical" name="LFERMIGW"> F  </i>
   <i type="logical" name="ODDONLYGW"> F  </i>
   <i type="logical" name="EVENONLYGW"> F  </i>
   <i type="int" name="NKREDLFX">     1</i>
   <i type="int" name="NKREDLFY">     1</i>
   <i type="int" name="NKREDLFZ">     1</i>
   <i type="int" name="MAXMEM">  2800</i>
   <i type="int" name="TELESCOPE">     0</i>
   <i type="int" name="NTAUPAR">    -1</i>
   <i type="int" name="NOMEGAPAR">    -1</i>
   <i name="DAMP_NEWTON">      0.80000001</i>
   <i name="LAMBDA">      1.00000000</i>
  </separator>
  <separator name="External order field" >
   <i name="OFIELD_KAPPA">      0.00000000</i>
   <v name="OFIELD_K">      0.00000000      0.00000000      0.00000000</v>
   <i name="OFIELD_Q6_NEAR">      0.00000000</i>
   <i name="OFIELD_Q6_FAR">      0.00000000</i>
   <i name="OFIELD_A">      0.00000000</i>
  </separator>
  <separator name="optional k-points parameters" >
   <i type="int" name="KPOINTS_OPT_MODE">     1</i>
   <i type="logical" name="LKPOINTS_OPT"> F  </i>
  </separator>
 </parameters>
 <atominfo>
  <atoms>      17 </atoms>
  <types>       3 </types>
  <array name="atoms" >
   <dimension dim="1">ion</dimension>
   <field type="string">element</field>
   <field type="int">atomtype</field>
   <set>
    <rc><c>C </c><c>   1</c></rc>
    <rc><c>C </c><c>   1</c></rc>
    <rc><c>C </c><c>   1</c></rc>
    <rc><c>C </c><c>   1</c></rc>
    <rc><c>C </c><c>   1</c></rc>
    <rc><c>C </c><c>   1</c></rc>
    <rc><c>C </c><c>   1</c></rc>
    <rc><c>H </c><c>   2</c></rc>
    <rc><c>H </c><c>   2</c></rc>
    <rc><c>H </c><c>   2</c></rc>
    <rc><c>H </c><c>   2</c></rc>
    <rc><c>H </c><c>   2</c></rc>
    <rc><c>H </c><c>   2</c></rc>
    <rc><c>H </c><c>   2</c></rc>
    <rc><c>H </c><c>   2</c></rc>
    <rc><c>H </c><c>   2</c></rc>
    <rc><c>N </c><c>   3</c></rc>
   </set>
  </array>
  <array name="atomtypes" >
   <dimension dim="1">type</dimension>
   <field type="int">atomspertype</field>
   <field type="string">element</field>
   <field>mass</field>
   <field>valence</field>
   <field type="string">pseudopotential</field>
   <set>
    <rc><c>   7</c><c>C </c><c>     12.01100000</c><c>      4.00000000</c><c>  PAW_PBE C 08Apr2002                   </c></rc>
    <rc><c>   9</c><c>H </c><c>      1.00000000</c><c>      1.00000000</c><c>  PAW_PBE H 15Jun2001                   </c></rc>
    <rc><c>   1</c><c>N </c><c>     14.00100000</c><c>      5.00000000</c><c>  PAW_PBE N 08Apr2002                   </c></rc>
   </set>
  </array>
 </atominfo>
 <structure name="initialpos" >
  <crystal>
   <varray name="basis" >
    <v>      15.40225029       0.00000000       0.00000000 </v>
    <v>       0.00000000      15.40225029       0.00000000 </v>
    <v>       0.00000000       0.00000000      15.40225029 </v>
   </varray>
   <i name="volume">   3653.86527022 </i>
   <varray name="rec_basis" >
    <v>       0.06492558       0.00000000       0.00000000 </v>
    <v>       0.00000000       0.06492558       0.00000000 </v>
    <v>       0.00000000       0.00000000       0.06492558 </v>
   </varray>
  </crystal>
  <varray name="positions" >
   <v>       0.34246901       0.43796370       0.56756027 </v>
   <v>       0.33892834       0.52479466       0.57159380 </v>
   <v>       0.41625752       0.58180086       0.56019453 </v>
   <v>       0.42293719       0.39037574       0.54268955 </v>
   <v>       0.50463045       0.44616057       0.55563018 </v>
   <v>       0.48911458       0.53385738       0.51222543 </v>
   <v>       0.56779668       0.58564377       0.50880920 </v>
   <v>       0.28392917       0.40010788       0.57897407 </v>
   <v>       0.42729890       0.32859280       0.57785319 </v>
   <v>       0.42194152       0.37248569       0.47366945 </v>
   <v>       0.27763973       0.55661891       0.58672164 </v>
   <v>       0.44276400       0.60244023       0.62297729 </v>
   <v>       0.39908005       0.64229137       0.52685350 </v>
   <v>       0.56197458       0.41407966       0.52853393 </v>
   <v>       0.51768592       0.45714796       0.62431951 </v>
   <v>       0.46832578       0.52199287       0.44533076 </v>
   <v>       0.63131225       0.62681195       0.50784542 </v>
  </varray>
 </structure>
 <calculation>
  <scstep>
   <time name="dav">    3.68    3.68</time>
   <time name="total">    5.82    5.82</time>
   <energy>
    <i name="alphaZ">      2.15216506 </i>
    <i name="ewald">   2589.09779196 </i>
    <i name="hartreedc">  -3524.57520734 </i>
    <i name="XCdc">    131.55938101 </i>
    <i name="pawpsdc">    983.79330320 </i>
    <i name="pawaedc">   -989.05002801 </i>
    <i name="eentropy">     -0.02358186 </i>
    <i name="bandstr">   -263.16528373 </i>
    <i name="atom">   1406.67326350 </i>
    <i name="e_fr_energy">    336.46180379 </i>
    <i name="e_wo_entrp">    336.48538565 </i>
    <i name="e_0_energy">    336.47359472 </i>
   </energy>
  </scstep>
  <scstep>
   <time name="dav">    4.48    4.48</time>
   <time name="total">    4.48    4.50</time>
   <energy>
    <i name="e_fr_energy">     43.05709669 </i>
    <i name="e_wo_entrp">     43.05709669 </i>
    <i name="e_0_energy">     43.05709669 </i>
   </energy>
  </scstep>
  <scstep>
   <time name="dav">    3.91    3.91</time>
   <time name="total">    3.91    3.92</time>
   <energy>
    <i name="e_fr_energy">    -99.82921531 </i>
    <i name="e_wo_entrp">    -99.82921531 </i>
    <i name="e_0_energy">    -99.82921531 </i>
   </energy>
  </scstep>
  <scstep>
   <time name="dav">    4.25    4.25</time>
   <time name="total">    4.25    4.25</time>
   <energy>
    <i name="e_fr_energy">   -114.11725218 </i>
    <i name="e_wo_entrp">   -114.11725218 </i>
    <i name="e_0_energy">   -114.11725218 </i>
   </energy>
  </scstep>
  <scstep>
   <time name="dav">    3.91    3.91</time>
   <time name="total">    4.35    4.36</time>
   <energy>
    <i name="e_fr_energy">   -114.27769813 </i>
    <i name="e_wo_entrp">   -114.27769813 </i>
    <i name="e_0_energy">   -114.27769813 </i>
   </energy>
  </scstep>
  <scstep>
   <time name="diag">    0.71    0.71</time>
   <time name="diis">    2.84    2.84</time>
   <time name="orth">    0.03    0.03</time>
   <time name="total">    6.28    6.29</time>
   <energy>
    <i name="e_fr_energy">   -105.84037818 </i>
    <i name="e_wo_entrp">   -105.84037818 </i>
    <i name="e_0_energy">   -105.84037818 </i>
   </energy>
  </scstep>
  <scstep>
   <time name="diag">    0.66    0.66</time>
   <time name="diis">    2.95    2.95</time>
   <time name="orth">    0.03    0.03</time>
   <time name="total">    6.44    6.45</time>
   <energy>
    <i name="e_fr_energy">   -103.77809933 </i>
    <i name="e_wo_entrp">   -103.77809933 </i>
    <i name="e_0_energy">   -103.77809933 </i>
   </energy>
  </scstep>
  <scstep>
   <time name="diag">    0.61    0.61</time>
   <time name="diis">    2.98    2.98</time>
   <time name="orth">    0.03    0.03</time>
   <time name="total">    6.32    6.32</time>
   <energy>
    <i name="e_fr_energy">   -103.59561081 </i>
    <i name="e_wo_entrp">   -103.59561081 </i>
    <i name="e_0_energy">   -103.59561081 </i>
   </energy>
  </scstep>
  <scstep>
   <time name="diag">    0.67    0.67</time>
   <time name="diis">    3.14    3.14</time>
   <time name="orth">    0.03    0.04</time>
   <time name="total">    6.70    6.71</time>
   <energy>
    <i name="e_fr_energy">   -103.49068361 </i>
    <i name="e_wo_entrp">   -103.49068361 </i>
    <i name="e_0_energy">   -103.49068361 </i>
   </energy>
  </scstep>
  <scstep>
   <time name="diag">    0.61    0.61</time>
   <time name="diis">    3.38    3.41</time>
   <time name="orth">    0.03    0.03</time>
   <time name="total">    6.76    6.80</time>
   <energy>
    <i name="e_fr_energy">   -103.48648234 </i>
    <i name="e_wo_entrp">   -103.48648234 </i>
    <i name="e_0_energy">   -103.48648234 </i>
   </energy>
  </scstep>
  <scstep>
   <time name="diag">    0.63    0.63</time>
   <time name="diis">    3.15    3.15</time>
   <time name="orth">    0.03    0.03</time>
   <time name="total">    6.53    6.53</time>
   <energy>
    <i name="e_fr_energy">   -103.49718712 </i>
    <i name="e_wo_entrp">   -103.49718712 </i>
    <i name="e_0_energy">   -103.49718712 </i>
   </energy>
  </scstep>
  <scstep>
   <time name="diag">    0.60    0.60</time>
   <time name="diis">    3.18    3.18</time>
   <time name="orth">    0.02    0.03</time>
   <time name="total">    6.42    6.43</time>
   <energy>
    <i name="e_fr_energy">   -103.49227097 </i>
    <i name="e_wo_entrp">   -103.49227097 </i>
    <i name="e_0_energy">   -103.49227097 </i>
   </energy>
  </scstep>
  <scstep>
   <time name="diag">    0.63    0.63</time>
   <time name="diis">    3.24    3.24</time>
   <time name="orth">    0.03    0.03</time>
   <time name="total">    6.55    6.55</time>
   <energy>
    <i name="e_fr_energy">   -103.49703728 </i>
    <i name="e_wo_entrp">   -103.49703728 </i>
    <i name="e_0_energy">   -103.49703728 </i>
   </energy>
  </scstep>
  <scstep>
   <time name="diag">    0.64    0.64</time>
   <time name="diis">    3.13    3.13</time>
   <time name="orth">    0.03    0.03</time>
   <time name="total">    6.54    6.54</time>
   <energy>
    <i name="e_fr_energy">   -103.50093957 </i>
    <i name="e_wo_entrp">   -103.50093957 </i>
    <i name="e_0_energy">   -103.50093957 </i>
   </energy>
  </scstep>
  <scstep>
   <time name="diag">    0.60    0.60</time>
   <time name="diis">    2.86    2.87</time>
   <time name="orth">    0.02    0.02</time>
   <time name="total">    6.24    6.25</time>
   <energy>
    <i name="e_fr_energy">   -103.51195611 </i>
    <i name="e_wo_entrp">   -103.51195611 </i>
    <i name="e_0_energy">   -103.51195611 </i>
   </energy>
  </scstep>
  <scstep>
   <time name="diag">    0.53    0.53</time>
   <time name="diis">    3.47    3.47</time>
   <time name="orth">    0.03    0.03</time>
   <time name="total">    6.64    6.64</time>
   <energy>
    <i name="e_fr_energy">   -103.51442502 </i>
    <i name="e_wo_entrp">   -103.51442502 </i>
    <i name="e_0_energy">   -103.51442502 </i>
   </energy>
  </scstep>
  <scstep>
   <time name="diag">    0.46    0.46</time>
   <time name="diis">    1.90    1.91</time>
   <time name="orth">    0.02    0.02</time>
   <time name="total">    4.48    4.49</time>
   <energy>
    <i name="e_fr_energy">   -103.51804123 </i>
    <i name="e_wo_entrp">   -103.51804123 </i>
    <i name="e_0_energy">   -103.51804123 </i>
   </energy>
  </scstep>
  <scstep>
   <time name="diag">    0.34    0.34</time>
   <time name="diis">    1.80    1.83</time>
   <time name="orth">    0.01    0.01</time>
   <time name="total">    3.97    4.03</time>
   <energy>
    <i name="e_fr_energy">   -103.51897120 </i>
    <i name="e_wo_entrp">   -103.51897120 </i>
    <i name="e_0_energy">   -103.51897120 </i>
   </energy>
  </scstep>
  <scstep>
   <time name="diag">    0.32    0.32</time>
   <time name="diis">    1.38    1.39</time>
   <time name="orth">    0.01    0.01</time>
   <time name="total">    3.39    3.41</time>
   <energy>
    <i name="e_fr_energy">   -103.51957425 </i>
    <i name="e_wo_entrp">   -103.51957425 </i>
    <i name="e_0_energy">   -103.51957425 </i>
   </energy>
  </scstep>
  <scstep>
   <time name="diag">    0.24    0.24</time>
   <time name="diis">    0.88    0.88</time>
   <time name="orth">    0.01    0.01</time>
   <time name="total">    2.31    2.32</time>
   <energy>
    <i name="e_fr_energy">   -103.51973164 </i>
    <i name="e_wo_entrp">   -103.51973164 </i>
    <i name="e_0_energy">   -103.51973164 </i>
   </energy>
  </scstep>
  <scstep>
   <time name="diag">    0.14    0.14</time>
   <time name="diis">    0.62    0.62</time>
   <time name="orth">    0.01    0.01</time>
   <time name="total">    1.60    1.60</time>
   <energy>
    <i name="e_fr_energy">   -103.51985204 </i>
    <i name="e_wo_entrp">   -103.51985204 </i>
    <i name="e_0_energy">   -103.51985204 </i>
   </energy>
  </scstep>
  <scstep>
   <time name="diag">    0.16    0.16</time>
   <time name="diis">    0.67    0.67</time>
   <time name="orth">    0.01    0.01</time>
   <time name="total">    1.75    1.75</time>
   <energy>
    <i name="e_fr_energy">   -103.51989536 </i>
    <i name="e_wo_entrp">   -103.51989536 </i>
    <i name="e_0_energy">   -103.51989536 </i>
   </energy>
  </scstep>
  <scstep>
   <time name="diag">    0.16    0.16</time>
   <time name="diis">    0.65    0.65</time>
   <time name="orth">    0.01    0.01</time>
   <time name="total">    1.81    1.81</time>
   <energy>
    <i name="e_fr_energy">   -103.51992169 </i>
    <i name="e_wo_entrp">   -103.51992169 </i>
    <i name="e_0_energy">   -103.51992169 </i>
   </energy>
  </scstep>
  <scstep>
   <time name="diag">    0.09    0.09</time>
   <time name="diis">    0.37    0.37</time>
   <time name="orth">    0.00    0.00</time>
   <time name="total">    1.20    1.20</time>
   <energy>
    <i name="alphaZ">      2.15216506 </i>
    <i name="ewald">   2589.09779196 </i>
    <i name="hartreedc">  -3720.81536813 </i>
    <i name="XCdc">    140.92056011 </i>
    <i name="pawpsdc">   3517.81370986 </i>
    <i name="pawaedc">  -3524.14682084 </i>
    <i name="eentropy">     -0.00000000 </i>
    <i name="bandstr">   -515.21523295 </i>
    <i name="atom">   1406.67326350 </i>
    <i name="e_fr_energy">   -103.51993143 </i>
    <i name="e_wo_entrp">   -103.51993143 </i>
    <i name="e_0_energy">   -103.51993143 </i>
   </energy>
  </scstep>
  <structure>
   <crystal>
    <varray name="basis" >
     <v>      15.40225029       0.00000000       0.00000000 </v>
     <v>       0.00000000      15.40225029       0.00000000 </v>
     <v>       0.00000000       0.00000000      15.40225029 </v>
    </varray>
    <i name="volume">   3653.86527022 </i>
    <varray name="rec_basis" >
     <v>       0.06492558       0.00000000       0.00000000 </v>
     <v>       0.00000000       0.06492558       0.00000000 </v>
     <v>       0.00000000       0.00000000       0.06492558 </v>
    </varray>
   </crystal>
   <varray name="positions" >
    <v>       0.34246901       0.43796370       0.56756027 </v>
    <v>       0.33892834       0.52479466       0.57159380 </v>
    <v>       0.41625752       0.58180086       0.56019453 </v>
    <v>       0.42293719       0.39037574       0.54268955 </v>
    <v>       0.50463045       0.44616057       0.55563018 </v>
    <v>       0.48911458       0.53385738       0.51222543 </v>
    <v>       0.56779668       0.58564377       0.50880920 </v>
    <v>       0.28392917       0.40010788       0.57897407 </v>
    <v>       0.42729890       0.32859280       0.57785319 </v>
    <v>       0.42194152       0.37248569       0.47366945 </v>
    <v>       0.27763973       0.55661891       0.58672164 </v>
    <v>       0.44276400       0.60244023       0.62297729 </v>
    <v>       0.39908005       0.64229137       0.52685350 </v>
    <v>       0.56197458       0.41407966       0.52853393 </v>
    <v>       0.51768592       0.45714796       0.62431951 </v>
    <v>       0.46832578       0.52199287       0.44533076 </v>
    <v>       0.63131225       0.62681195       0.50784542 </v>
   </varray>
  </structure>
  <varray name="forces" >
   <v>      -0.20306786       0.27721383      -0.32964835 </v>
   <v>      -0.18622017      -0.20864326       0.35675249 </v>
   <v>       0.13708921       0.23046346      -0.17913613 </v>
   <v>       0.58923083      -0.03642708       0.19067091 </v>
   <v>      -0.16733683      -0.47559188      -0.07629195 </v>
   <v>       0.09251516       0.21820548      -0.00278568 </v>
   <v>       0.05549341       0.04256075      -0.01178561 </v>
   <v>      -0.17414205      -0.08652189      -0.03721094 </v>
   <v>       0.12084136      -0.08718114       0.15346967 </v>
   <v>      -0.27248138      -0.16755378      -0.24168676 </v>
   <v>      -0.12595013       0.06157752       0.12053787 </v>
   <v>      -0.07600309       0.09606609       0.33750671 </v>
   <v>      -0.04123436       0.09615625      -0.19002140 </v>
   <v>       0.10373561      -0.08187719      -0.10917053 </v>
   <v>       0.03618455       0.00146312       0.39545311 </v>
   <v>      -0.07415603      -0.00995173      -0.36829728 </v>
   <v>       0.18550176       0.13004146      -0.00835612 </v>
  </varray>
  <varray name="stress" >
   <v>       0.01042122      -0.03802786      -0.04833826 </v>
   <v>      -0.03802786       0.06181878       0.02190319 </v>
   <v>      -0.04833826       0.02190319      -0.01691679 </v>
  </varray>
  <energy>
   <i name="e_fr_energy">   -103.71863179 </i>
   <i name="e_wo_entrp">   -103.71863179 </i>
   <i name="e_0_energy">   -103.71863179 </i>
  </energy>
  <time name="totalsc">  126.44  126.68</time>
 </calculation>
 <calculation>
  <scstep>
   <time name="dav">    2.54    2.54</time>
   <time name="total">    4.13    4.13</time>
   <energy>
    <i name="alphaZ">      2.15216506 </i>
    <i name="ewald">   2585.66382608 </i>
    <i name="hartreedc">  -3718.05248584 </i>
    <i name="XCdc">    140.87378627 </i>
    <i name="pawpsdc">   3517.80224689 </i>
    <i name="pawaedc">  -3524.13541558 </i>
    <i name="eentropy">     -0.00000000 </i>
    <i name="bandstr">   -514.51279203 </i>
    <i name="atom">   1406.67326350 </i>
    <i name="e_fr_energy">   -103.53540565 </i>
    <i name="e_wo_entrp">   -103.53540565 </i>
    <i name="e_0_energy">   -103.53540565 </i>
   </energy>
  </scstep>
  <scstep>
   <time name="diag">    0.34    0.34</time>
   <time name="diis">    2.02    2.02</time>
   <time name="orth">    0.01    0.01</time>
   <time name="total">    4.02    4.02</time>
   <energy>
    <i name="e_fr_energy">   -103.53557454 </i>
    <i name="e_wo_entrp">   -103.53557454 </i>
    <i name="e_0_energy">   -103.53557454 </i>
   </energy>
  </scstep>
  <scstep>
   <time name="diag">    0.45    0.45</time>
   <time name="diis">    1.34    1.34</time>
   <time name="orth">    0.01    0.01</time>
   <time name="total">    3.75    3.75</time>
   <energy>
    <i name="e_fr_energy">   -103.53552481 </i>
    <i name="e_wo_entrp">   -103.53552481 </i>
    <i name="e_0_energy">   -103.53552481 </i>
   </energy>
  </scstep>
  <scstep>
   <time name="diag">    0.42    0.42</time>
   <time name="diis">    2.38    2.39</time>
   <time name="orth">    0.01    0.01</time>
   <time name="total">    4.52    4.53</time>
   <energy>
    <i name="e_fr_energy">   -103.53555136 </i>
    <i name="e_wo_entrp">   -103.53555136 </i>
    <i name="e_0_energy">   -103.53555136 </i>
   </energy>
  </scstep>
  <scstep>
   <time name="diag">    0.31    0.31</time>
   <time name="diis">    2.62    2.62</time>
   <time name="orth">    0.03    0.03</time>
   <time name="total">    4.14    4.14</time>
   <energy>
    <i name="alphaZ">      2.15216506 </i>
    <i name="ewald">   2585.66382608 </i>
    <i name="hartreedc">  -3717.57608645 </i>
    <i name="XCdc">    140.85204869 </i>
    <i name="pawpsdc">   3509.18635228 </i>
    <i name="pawaedc">  -3515.51343474 </i>
    <i name="eentropy">     -0.00000000 </i>
    <i name="bandstr">   -514.97369358 </i>
    <i name="atom">   1406.67326350 </i>
    <i name="e_fr_energy">   -103.53555915 </i>
    <i name="e_wo_entrp">   -103.53555915 </i>
    <i name="e_0_energy">   -103.53555915 </i>
   </energy>
  </scstep>
  <structure>
   <crystal>
    <varray name="basis" >
     <v>      15.40225029       0.00000000       0.00000000 </v>
     <v>       0.00000000      15.40225029       0.00000000 </v>
     <v>       0.00000000       0.00000000      15.40225029 </v>
    </varray>
    <i name="volume">   3653.86527022 </i>
    <varray name="rec_basis" >
     <v>       0.06492558       0.00000000       0.00000000 </v>
     <v>       0.00000000       0.06492558       0.00000000 </v>
     <v>       0.00000000       0.00000000       0.06492558 </v>
    </varray>
   </crystal>
   <varray name="positions" >
    <v>       0.34234819       0.43813684       0.56734717 </v>
    <v>       0.33881643       0.52466301       0.57181569 </v>
    <v>       0.41634859       0.58194743       0.56009210 </v>
    <v>       0.42331801       0.39035067       0.54282434 </v>
    <v>       0.50453376       0.44586129       0.55560920 </v>
    <v>       0.48918951       0.53399664       0.51225162 </v>
    <v>       0.56784785       0.58567370       0.50885203 </v>
    <v>       0.28382469       0.40005250       0.57892959 </v>
    <v>       0.42737958       0.32854244       0.57797593 </v>
    <v>       0.42179098       0.37236614       0.47353686 </v>
    <v>       0.27756279       0.55665550       0.58678622 </v>
    <v>       0.44270368       0.60251093       0.62320204 </v>
    <v>       0.39906378       0.64234842       0.52673292 </v>
    <v>       0.56205176       0.41402802       0.52849953 </v>
    <v>       0.51770606       0.45714452       0.62459705 </v>
    <v>       0.46831399       0.52199286       0.44512250 </v>
    <v>       0.63144324       0.62689724       0.50790789 </v>
   </varray>
  </structure>
  <varray name="forces" >
   <v>      -0.10670811      -0.05410293      -0.28331106 </v>
   <v>      -0.08372493       0.09801371       0.27825999 </v>
   <v>       0.05708603       0.14662558      -0.01571776 </v>
   <v>       0.26350753      -0.06901465       0.02513146 </v>
   <v>       0.01339936      -0.23377172       0.07125739 </v>
   <v>       0.02907601       0.07096798      -0.09360906 </v>
   <v>       0.21859203       0.13492784      -0.01192197 </v>
   <v>      -0.11402908      -0.05439210      -0.05883032 </v>
   <v>       0.11890565      -0.07977052       0.15524681 </v>
   <v>      -0.23801665      -0.14203221      -0.11088346 </v>
   <v>      -0.12134626       0.05414913       0.12376335 </v>
   <v>      -0.09869253       0.08114605       0.23426605 </v>
   <v>      -0.04725181       0.10656072      -0.18975638 </v>
   <v>       0.09046757      -0.07820531      -0.09618489 </v>
   <v>       0.00958045      -0.03574529       0.23004137 </v>
   <v>      -0.03333385       0.01731587      -0.25102385 </v>
   <v>       0.04248859       0.03732784      -0.00672766 </v>
  </varray>
  <varray name="stress" >
   <v>      -0.14288726      -0.03730937      -0.04807014 </v>
   <v>      -0.03730937       0.03942478       0.01676341 </v>
   <v>      -0.04807014       0.01676341      -0.25938929 </v>
  </varray>
  <energy>
   <i name="e_fr_energy">   -103.73426979 </i>
   <i name="e_wo_entrp">   -103.73426979 </i>
   <i name="e_0_energy">   -103.73426979 </i>
  </energy>
  <time name="totalsc">   37.56   37.60</time>
 </calculation>
 <calculation>
  <scstep>
   <time name="dav">    1.28    1.28</time>
   <time name="total">    3.44    3.44</time>
   <energy>
    <i name="alphaZ">      2.15216506 </i>
    <i name="ewald">   2581.34254756 </i>
    <i name="hartreedc">  -3713.84187458 </i>
    <i name="XCdc">    140.80114351 </i>
    <i name="pawpsdc">   3508.46303810 </i>
    <i name="pawaedc">  -3514.79018660 </i>
    <i name="eentropy">     -0.00000000 </i>
    <i name="bandstr">   -514.34593724 </i>
    <i name="atom">   1406.67326350 </i>
    <i name="e_fr_energy">   -103.54584069 </i>
    <i name="e_wo_entrp">   -103.54584069 </i>
    <i name="e_0_energy">   -103.54584069 </i>
   </energy>
  </scstep>
  <scstep>
   <time name="diag">    0.20    0.20</time>
   <time name="diis">    1.28    1.28</time>
   <time name="orth">    0.01    0.01</time>
   <time name="total">    2.89    2.90</time>
   <energy>
    <i name="e_fr_energy">   -103.54590228 </i>
    <i name="e_wo_entrp">   -103.54590228 </i>
    <i name="e_0_energy">   -103.54590228 </i>
   </energy>
  </scstep>
  <scstep>
   <time name="diag">    0.59    0.59</time>
   <time name="diis">    1.90    1.90</time>
   <time name="orth">    0.01    0.01</time>
   <time name="total">    4.53    4.54</time>
   <energy>
    <i name="e_fr_energy">   -103.54585555 </i>
    <i name="e_wo_entrp">   -103.54585555 </i>
    <i name="e_0_energy">   -103.54585555 </i>
   </energy>
  </scstep>
  <scstep>
   <time name="diag">    0.21    0.21</time>
   <time name="diis">    1.32    1.32</time>
   <time name="orth">    0.01    0.01</time>
   <time name="total">    2.79    2.79</time>
   <energy>
    <i name="e_fr_energy">   -103.54588121 </i>
    <i name="e_wo_entrp">   -103.54588121 </i>
    <i name="e_0_energy">   -103.54588121 </i>
   </energy>
  </scstep>
  <scstep>
   <time name="diag">    0.23    0.23</time>
   <time name="diis">    0.87    0.87</time>
   <time name="orth">    0.01    0.01</time>
   <time name="total">    2.36    2.36</time>
   <energy>
    <i name="alphaZ">      2.15216506 </i>
    <i name="ewald">   2581.34254756 </i>
    <i name="hartreedc">  -3713.48306608 </i>
    <i name="XCdc">    140.79054733 </i>
    <i name="pawpsdc">   3500.31123383 </i>
    <i name="pawaedc">  -3506.63546070 </i>
    <i name="eentropy">     -0.00000000 </i>
    <i name="bandstr">   -514.69711592 </i>
    <i name="atom">   1406.67326350 </i>
    <i name="e_fr_energy">   -103.54588542 </i>
    <i name="e_wo_entrp">   -103.54588542 </i>
    <i name="e_0_energy">   -103.54588542 </i>
   </energy>
  </scstep>
  <structure>
   <crystal>
    <varray name="basis" >
     <v>      15.40225029       0.00000000       0.00000000 </v>
     <v>       0.00000000      15.40225029       0.00000000 </v>
     <v>       0.00000000       0.00000000      15.40225029 </v>
    </varray>
    <i name="volume">   3653.86527022 </i>
    <varray name="rec_basis" >
     <v>       0.06492558       0.00000000       0.00000000 </v>
     <v>       0.00000000       0.06492558       0.00000000 </v>
     <v>       0.00000000       0.00000000       0.06492558 </v>
    </varray>
   </crystal>
   <varray name="positions" >
    <v>       0.34225688       0.43808437       0.56706919 </v>
    <v>       0.33874441       0.52475481       0.57207660 </v>
    <v>       0.41641029       0.58208940       0.56009211 </v>
    <v>       0.42358449       0.39028192       0.54287085 </v>
    <v>       0.50455887       0.44563833       0.55571697 </v>
    <v>       0.48924233       0.53406745       0.51220466 </v>
    <v>       0.56807953       0.58580643       0.50891586 </v>
    <v>       0.28372374       0.39999930       0.57884220 </v>
    <v>       0.42749959       0.32847329       0.57816268 </v>
    <v>       0.42159587       0.37220991       0.47346025 </v>
    <v>       0.27745085       0.55670378       0.58688701 </v>
    <v>       0.44259120       0.60260345       0.62344358 </v>
    <v>       0.39903336       0.64244453       0.52655098 </v>
    <v>       0.56215561       0.41395348       0.52845935 </v>
    <v>       0.51771132       0.45710412       0.62485917 </v>
    <v>       0.46833436       0.52201860       0.44491864 </v>
    <v>       0.63150538       0.62693818       0.50800282 </v>
   </varray>
  </structure>
  <varray name="forces" >
   <v>      -0.04576283       0.05937255      -0.20376412 </v>
   <v>      -0.01131906      -0.03165669       0.18357779 </v>
   <v>       0.01903001       0.12329754       0.04212307 </v>
   <v>       0.06825516      -0.10999693      -0.03713349 </v>
   <v>       0.09214173      -0.06735591       0.06872821 </v>
   <v>       0.06175531       0.02412721      -0.08463824 </v>
   <v>      -0.14636120      -0.10641752      -0.01029033 </v>
   <v>      -0.09113898      -0.05088016      -0.07598507 </v>
   <v>       0.11135289      -0.05554842       0.13403148 </v>
   <v>      -0.19300606      -0.13206835      -0.04175063 </v>
   <v>      -0.12323304       0.05854236       0.13174324 </v>
   <v>      -0.09935939       0.07875373       0.15863548 </v>
   <v>      -0.03683673       0.08138316      -0.15881314 </v>
   <v>       0.07228201      -0.06943753      -0.07027567 </v>
   <v>      -0.00076859      -0.05478289       0.14297083 </v>
   <v>      -0.00527503       0.03160601      -0.16969946 </v>
   <v>       0.32824380       0.22106185      -0.00945994 </v>
  </varray>
  <varray name="stress" >
   <v>      -0.15183591       0.06603418      -0.05330785 </v>
   <v>       0.06603418      -0.12481917       0.02781054 </v>
   <v>      -0.05330785       0.02781054      -0.44523881 </v>
  </varray>
  <energy>
   <i name="e_fr_energy">   -103.74464674 </i>
   <i name="e_wo_entrp">   -103.74464674 </i>
   <i name="e_0_energy">   -103.74464674 </i>
  </energy>
  <time name="totalsc">   37.42   37.48</time>
 </calculation>
 <calculation>
  <scstep>
   <time name="dav">    1.60    1.60</time>
   <time name="total">    2.96    2.97</time>
   <energy>
    <i name="alphaZ">      2.15216506 </i>
    <i name="ewald">   2578.33965720 </i>
    <i name="hartreedc">  -3711.11932257 </i>
    <i name="XCdc">    140.75041951 </i>
    <i name="pawpsdc">   3499.16187772 </i>
    <i name="pawaedc">  -3505.48610676 </i>
    <i name="eentropy">     -0.00000000 </i>
    <i name="bandstr">   -514.02253893 </i>
    <i name="atom">   1406.67326350 </i>
    <i name="e_fr_energy">   -103.55058527 </i>
    <i name="e_wo_entrp">   -103.55058527 </i>
    <i name="e_0_energy">   -103.55058527 </i>
   </energy>
  </scstep>
  <scstep>
   <time name="diag">    0.37    0.37</time>
   <time name="diis">    2.00    2.03</time>
   <time name="orth">    0.02    0.02</time>
   <time name="total">    4.12    4.18</time>
   <energy>
    <i name="e_fr_energy">   -103.55059785 </i>
    <i name="e_wo_entrp">   -103.55059785 </i>
    <i name="e_0_energy">   -103.55059785 </i>
   </energy>
  </scstep>
  <scstep>
   <time name="diag">    0.46    0.46</time>
   <time name="diis">    1.82    1.82</time>
   <time name="orth">    0.01    0.01</time>
   <time name="total">    3.99    4.00</time>
   <energy>
    <i name="e_fr_energy">   -103.55058165 </i>
    <i name="e_wo_entrp">   -103.55058165 </i>
    <i name="e_0_energy">   -103.55058165 </i>
   </energy>
  </scstep>
  <scstep>
   <time name="diag">    0.37    0.37</time>
   <time name="diis">    2.22    2.22</time>
   <time name="orth">    0.02    0.02</time>
   <time name="total">    4.35    4.35</time>
   <energy>
    <i name="e_fr_energy">   -103.55059262 </i>
    <i name="e_wo_entrp">   -103.55059262 </i>
    <i name="e_0_energy">   -103.55059262 </i>
   </energy>
  </scstep>
  <scstep>
   <time name="diag">    0.25    0.25</time>
   <time name="diis">    1.31    1.31</time>
   <time name="orth">    0.01    0.01</time>
   <time name="total">    3.04    3.04</time>
   <energy>
    <i name="alphaZ">      2.15216506 </i>
    <i name="ewald">   2578.33965720 </i>
    <i name="hartreedc">  -3710.65655541 </i>
    <i name="XCdc">    140.73003474 </i>
    <i name="pawpsdc">   3488.76203688 </i>
    <i name="pawaedc">  -3495.07909261 </i>
    <i name="eentropy">     -0.00000000 </i>
    <i name="bandstr">   -514.47210608 </i>
    <i name="atom">   1406.67326350 </i>
    <i name="e_fr_energy">   -103.55059671 </i>
    <i name="e_wo_entrp">   -103.55059671 </i>
    <i name="e_0_energy">   -103.55059671 </i>
   </energy>
  </scstep>
  <structure>
   <crystal>
    <varray name="basis" >
     <v>      15.40225029       0.00000000       0.00000000 </v>
     <v>       0.00000000      15.40225029       0.00000000 </v>
     <v>       0.00000000       0.00000000      15.40225029 </v>
    </varray>
    <i name="volume">   3653.86527022 </i>
    <varray name="rec_basis" >
     <v>       0.06492558       0.00000000       0.00000000 </v>
     <v>       0.00000000       0.06492558       0.00000000 </v>
     <v>       0.00000000       0.00000000       0.06492558 </v>
    </varray>
   </crystal>
   <varray name="positions" >
    <v>       0.34222486       0.43810274       0.56692329 </v>
    <v>       0.33873053       0.52475487       0.57220449 </v>
    <v>       0.41643302       0.58217202       0.56011871 </v>
    <v>       0.42366867       0.39021758       0.54287192 </v>
    <v>       0.50461183       0.44556901       0.55578583 </v>
    <v>       0.48929176       0.53409219       0.51217687 </v>
    <v>       0.56806146       0.58578126       0.50895684 </v>
    <v>       0.28366770       0.39996591       0.57877738 </v>
    <v>       0.42757498       0.32843885       0.57827491 </v>
    <v>       0.42148751       0.37211211       0.47344128 </v>
    <v>       0.27737612       0.55673772       0.58695758 </v>
    <v>       0.44251723       0.60266294       0.62356703 </v>
    <v>       0.39901780       0.64249626       0.52644555 </v>
    <v>       0.56221514       0.41390845       0.52844370 </v>
    <v>       0.51771005       0.45706877       0.62499025 </v>
    <v>       0.46835959       0.52204200       0.44482136 </v>
    <v>       0.63167904       0.62705069       0.50806161 </v>
   </varray>
  </structure>
  <varray name="forces" >
   <v>      -0.03635691       0.02341878      -0.16618192 </v>
   <v>      -0.00692547      -0.00137337       0.14961667 </v>
   <v>       0.00100547       0.10193264       0.04973371 </v>
   <v>       0.01789980      -0.09750565      -0.04283124 </v>
   <v>       0.09343427      -0.03452981       0.04841895 </v>
   <v>       0.01742705      -0.01367133      -0.06645575 </v>
   <v>       0.22863917       0.13573055      -0.02145901 </v>
   <v>      -0.06648526      -0.03503744      -0.08675353 </v>
   <v>       0.10269572      -0.04373436       0.12350715 </v>
   <v>      -0.17221076      -0.13112139      -0.02454829 </v>
   <v>      -0.09774592       0.04399300       0.12904868 </v>
   <v>      -0.09581789       0.07970193       0.12928375 </v>
   <v>      -0.03242296       0.06346327      -0.13964900 </v>
   <v>       0.06482641      -0.06272820      -0.05637485 </v>
   <v>      -0.00297063      -0.05926911       0.11224634 </v>
   <v>       0.00289726       0.03408979      -0.13434809 </v>
   <v>      -0.01788934      -0.00335931      -0.00325361 </v>
  </varray>
  <varray name="stress" >
   <v>      -0.35159260       0.00070275      -0.05014753 </v>
   <v>       0.00070275      -0.25089551       0.03350196 </v>
   <v>      -0.05014753       0.03350196      -0.52294040 </v>
  </varray>
  <energy>
   <i name="e_fr_energy">   -103.74935343 </i>
   <i name="e_wo_entrp">   -103.74935343 </i>
   <i name="e_0_energy">   -103.74935343 </i>
  </energy>
  <time name="totalsc">   36.29   36.36</time>
 </calculation>
 <calculation>
  <scstep>
   <time name="dav">    2.34    2.34</time>
   <time name="total">    3.98    3.98</time>
   <energy>
    <i name="alphaZ">      2.15216506 </i>
    <i name="ewald">   2576.89972979 </i>
    <i name="hartreedc">  -3709.35920382 </i>
    <i name="XCdc">    140.71460414 </i>
    <i name="pawpsdc">   3487.55611108 </i>
    <i name="pawaedc">  -3493.87295691 </i>
    <i name="eentropy">     -0.00000000 </i>
    <i name="bandstr">   -514.31720491 </i>
    <i name="atom">   1406.67326350 </i>
    <i name="e_fr_energy">   -103.55349207 </i>
    <i name="e_wo_entrp">   -103.55349207 </i>
    <i name="e_0_energy">   -103.55349207 </i>
   </energy>
  </scstep>
  <scstep>
   <time name="diag">    0.41    0.41</time>
   <time name="diis">    2.25    2.25</time>
   <time name="orth">    0.01    0.01</time>
   <time name="total">    4.41    4.42</time>
   <energy>
    <i name="e_fr_energy">   -103.55349353 </i>
    <i name="e_wo_entrp">   -103.55349353 </i>
    <i name="e_0_energy">   -103.55349353 </i>
   </energy>
  </scstep>
  <scstep>
   <time name="diag">    0.35    0.35</time>
   <time name="diis">    1.77    1.77</time>
   <time name="orth">    0.01    0.01</time>
   <time name="total">    4.15    4.15</time>
   <energy>
    <i name="e_fr_energy">   -103.55348969 </i>
    <i name="e_wo_entrp">   -103.55348969 </i>
    <i name="e_0_energy">   -103.55348969 </i>
   </energy>
  </scstep>
  <scstep>
   <time name="diag">    0.26    0.26</time>
   <time name="diis">    1.74    1.74</time>
   <time name="orth">    0.02    0.02</time>
   <time name="total">    3.36    3.36</time>
   <energy>
    <i name="alphaZ">      2.15216506 </i>
    <i name="ewald">   2576.89972979 </i>
    <i name="hartreedc">  -3709.27638488 </i>
    <i name="XCdc">    140.71408855 </i>
    <i name="pawpsdc">   3486.50580985 </i>
    <i name="pawaedc">  -3492.82245516 </i>
    <i name="eentropy">     -0.00000000 </i>
    <i name="bandstr">   -514.39971044 </i>
    <i name="atom">   1406.67326350 </i>
    <i name="e_fr_energy">   -103.55349373 </i>
    <i name="e_wo_entrp">   -103.55349373 </i>
    <i name="e_0_energy">   -103.55349373 </i>
   </energy>
  </scstep>
  <structure>
   <crystal>
    <varray name="basis" >
     <v>      15.40225029       0.00000000       0.00000000 </v>
     <v>       0.00000000      15.40225029       0.00000000 </v>
     <v>       0.00000000       0.00000000      15.40225029 </v>
    </varray>
    <i name="volume">   3653.86527022 </i>
    <varray name="rec_basis" >
     <v>       0.06492558       0.00000000       0.00000000 </v>
     <v>       0.00000000       0.06492558       0.00000000 </v>
     <v>       0.00000000       0.00000000       0.06492558 </v>
    </varray>
   </crystal>
   <varray name="positions" >
    <v>       0.34221632       0.43812874       0.56683049 </v>
    <v>       0.33873931       0.52473855       0.57227909 </v>
    <v>       0.41643263       0.58223056       0.56016343 </v>
    <v>       0.42366332       0.39015345       0.54285118 </v>
    <v>       0.50468342       0.44556887       0.55583544 </v>
    <v>       0.48931855       0.53407934       0.51216177 </v>
    <v>       0.56817577       0.58584139       0.50898478 </v>
    <v>       0.28363565       0.39994513       0.57870653 </v>
    <v>       0.42763856       0.32841973       0.57836660 </v>
    <v>       0.42140817       0.37202405       0.47345104 </v>
    <v>       0.27732041       0.55676224       0.58702587 </v>
    <v>       0.44245029       0.60271829       0.62364414 </v>
    <v>       0.39900779       0.64252763       0.52636606 </v>
    <v>       0.56226091       0.41387235       0.52844150 </v>
    <v>       0.51770491       0.45702774       0.62506919 </v>
    <v>       0.46839310       0.52206903       0.44477115 </v>
    <v>       0.63170573       0.62706801       0.50811445 </v>
   </varray>
  </structure>
  <varray name="forces" >
   <v>      -0.04650171      -0.02855537      -0.14513603 </v>
   <v>      -0.02956515       0.05262777       0.13964441 </v>
   <v>       0.00529801       0.08273120       0.02857774 </v>
   <v>       0.03846856      -0.06729349      -0.02050170 </v>
   <v>       0.05792718      -0.05178483       0.01859569 </v>
   <v>       0.04339251       0.02171239      -0.04489492 </v>
   <v>       0.04425444       0.01734409      -0.01995569 </v>
   <v>      -0.04913814      -0.01995731      -0.09262717 </v>
   <v>       0.09283668      -0.03539020       0.11523464 </v>
   <v>      -0.16070924      -0.13382464      -0.03077055 </v>
   <v>      -0.06627733       0.02506944       0.12301388 </v>
   <v>      -0.08956493       0.08239512       0.12037843 </v>
   <v>      -0.02978062       0.04853897      -0.12438691 </v>
   <v>       0.06173102      -0.05702202      -0.04826919 </v>
   <v>      -0.00107150      -0.05772921       0.10384315 </v>
   <v>       0.00669739       0.03418310      -0.11847260 </v>
   <v>       0.12200282       0.08695501      -0.00427319 </v>
  </varray>
  <varray name="stress" >
   <v>      -0.37142237       0.03117163      -0.04674896 </v>
   <v>       0.03117163      -0.26952638       0.03516242 </v>
   <v>      -0.04674896       0.03516242      -0.55136585 </v>
  </varray>
  <energy>
   <i name="e_fr_energy">   -103.75228174 </i>
   <i name="e_wo_entrp">   -103.75228174 </i>
   <i name="e_0_energy">   -103.75228174 </i>
  </energy>
  <time name="totalsc">   32.53   35.61</time>
 </calculation>
 <calculation>
  <scstep>
   <time name="dav">    2.30    2.44</time>
   <time name="total">    3.97    5.19</time>
   <energy>
    <i name="alphaZ">      2.15216506 </i>
    <i name="ewald">   2573.53155918 </i>
    <i name="hartreedc">  -3706.46869117 </i>
    <i name="XCdc">    140.67598344 </i>
    <i name="pawpsdc">   3486.03718274 </i>
    <i name="pawaedc">  -3492.35389519 </i>
    <i name="eentropy">     -0.00000000 </i>
    <i name="bandstr">   -513.80541453 </i>
    <i name="atom">   1406.67326350 </i>
    <i name="e_fr_energy">   -103.55784698 </i>
    <i name="e_wo_entrp">   -103.55784698 </i>
    <i name="e_0_energy">   -103.55784698 </i>
   </energy>
  </scstep>
  <scstep>
   <time name="diag">    0.26    0.29</time>
   <time name="diis">    1.41    1.51</time>
   <time name="orth">    0.01    0.01</time>
   <time name="total">    3.77    4.11</time>
   <energy>
    <i name="e_fr_energy">   -103.55793812 </i>
    <i name="e_wo_entrp">   -103.55793812 </i>
    <i name="e_0_energy">   -103.55793812 </i>
   </energy>
  </scstep>
  <scstep>
   <time name="diag">    0.31    0.34</time>
   <time name="diis">    2.07    2.92</time>
   <time name="orth">    0.02    0.03</time>
   <time name="total">    3.98    5.55</time>
   <energy>
    <i name="e_fr_energy">   -103.55795181 </i>
    <i name="e_wo_entrp">   -103.55795181 </i>
    <i name="e_0_energy">   -103.55795181 </i>
   </energy>
  </scstep>
  <scstep>
   <time name="diag">    0.49    0.54</time>
   <time name="diis">    1.85    2.51</time>
   <time name="orth">    0.02    0.04</time>
   <time name="total">    4.55    6.40</time>
   <energy>
    <i name="e_fr_energy">   -103.55796857 </i>
    <i name="e_wo_entrp">   -103.55796857 </i>
    <i name="e_0_energy">   -103.55796857 </i>
   </energy>
  </scstep>
  <scstep>
   <time name="diag">    0.32    0.67</time>
   <time name="diis">    1.14    1.62</time>
   <time name="orth">    0.00    0.00</time>
   <time name="total">    2.79    3.75</time>
   <energy>
    <i name="alphaZ">      2.15216506 </i>
    <i name="ewald">   2573.53155918 </i>
    <i name="hartreedc">  -3706.09195490 </i>
    <i name="XCdc">    140.66127199 </i>
    <i name="pawpsdc">   3476.34822228 </i>
    <i name="pawaedc">  -3482.65938035 </i>
    <i name="eentropy">     -0.00000000 </i>
    <i name="bandstr">   -514.17311991 </i>
    <i name="atom">   1406.67326350 </i>
    <i name="e_fr_energy">   -103.55797314 </i>
    <i name="e_wo_entrp">   -103.55797314 </i>
    <i name="e_0_energy">   -103.55797314 </i>
   </energy>
  </scstep>
  <structure>
   <crystal>
    <varray name="basis" >
     <v>      15.40225029       0.00000000       0.00000000 </v>
     <v>       0.00000000      15.40225029       0.00000000 </v>
     <v>       0.00000000       0.00000000      15.40225029 </v>
    </varray>
    <i name="volume">   3653.86527022 </i>
    <varray name="rec_basis" >
     <v>       0.06492558       0.00000000       0.00000000 </v>
     <v>       0.00000000       0.06492558       0.00000000 </v>
     <v>       0.00000000       0.00000000       0.06492558 </v>
    </varray>
   </crystal>
   <varray name="positions" >
    <v>       0.34219363       0.43807432       0.56668923 </v>
    <v>       0.33873259       0.52481463       0.57239868 </v>
    <v>       0.41641274       0.58231597       0.56025548 </v>
    <v>       0.42359083       0.39005214       0.54282125 </v>
    <v>       0.50481460       0.44560708       0.55587141 </v>
    <v>       0.48942009       0.53408148       0.51218548 </v>
    <v>       0.56826397       0.58586288       0.50904188 </v>
    <v>       0.28361902       0.39994123       0.57848955 </v>
    <v>       0.42777620       0.32840507       0.57857331 </v>
    <v>       0.42124749       0.37178511       0.47349419 </v>
    <v>       0.27726775       0.55677134       0.58720002 </v>
    <v>       0.44228948       0.60287315       0.62377931 </v>
    <v>       0.39899166       0.64255342       0.52621406 </v>
    <v>       0.56236259       0.41379681       0.52846709 </v>
    <v>       0.51769104       0.45691095       0.62520160 </v>
    <v>       0.46850071       0.52214790       0.44472426 </v>
    <v>       0.63188723       0.62718579       0.50824325 </v>
   </varray>
  </structure>
  <varray name="forces" >
   <v>      -0.04169935       0.10038760      -0.11327862 </v>
   <v>      -0.02622335      -0.06814165       0.11089528 </v>
   <v>       0.02392944       0.07504786      -0.00932407 </v>
   <v>       0.12257490      -0.03083804       0.01593241 </v>
   <v>      -0.01605909      -0.11497776       0.00414905 </v>
   <v>       0.00998299       0.04514609      -0.02610791 </v>
   <v>       0.22726065       0.14287863      -0.01774658 </v>
   <v>      -0.06974006      -0.02990660      -0.08807192 </v>
   <v>       0.07609840      -0.01489796       0.09737949 </v>
   <v>      -0.14343683      -0.13607668      -0.04200474 </v>
   <v>      -0.05498406       0.02118534       0.11902864 </v>
   <v>      -0.07753089       0.08500285       0.10631550 </v>
   <v>      -0.02331366       0.02618792      -0.09978899 </v>
   <v>       0.05032805      -0.04529446      -0.03985561 </v>
   <v>      -0.00065533      -0.05330995       0.07692237 </v>
   <v>       0.00943902       0.03351187      -0.09045700 </v>
   <v>      -0.06597082      -0.03590507      -0.00398731 </v>
  </varray>
  <varray name="stress" >
   <v>      -0.51766134      -0.01248372      -0.04951599 </v>
   <v>      -0.01248372      -0.42246161       0.02811419 </v>
   <v>      -0.04951599       0.02811419      -0.60710075 </v>
  </varray>
  <energy>
   <i name="e_fr_energy">   -103.75676155 </i>
   <i name="e_wo_entrp">   -103.75676155 </i>
   <i name="e_0_energy">   -103.75676155 </i>
  </energy>
  <time name="totalsc">   35.55   46.21</time>
 </calculation>
 <calculation>
  <scstep>
   <time name="dav">    1.50    2.11</time>
   <time name="total">    2.83    3.70</time>
   <energy>
    <i name="alphaZ">      2.15216506 </i>
    <i name="ewald">   2569.53259850 </i>
    <i name="hartreedc">  -3702.44103492 </i>
    <i name="XCdc">    140.62269687 </i>
    <i name="pawpsdc">   3475.22412112 </i>
    <i name="pawaedc">  -3481.53518888 </i>
    <i name="eentropy">     -0.00000000 </i>
    <i name="bandstr">   -513.79307102 </i>
    <i name="atom">   1406.67326350 </i>
    <i name="e_fr_energy">   -103.56444977 </i>
    <i name="e_wo_entrp">   -103.56444977 </i>
    <i name="e_0_energy">   -103.56444977 </i>
   </energy>
  </scstep>
  <scstep>
   <time name="diag">    0.42    0.45</time>
   <time name="diis">    1.63    2.26</time>
   <time name="orth">    0.01    0.01</time>
   <time name="total">    3.91    5.03</time>
   <energy>
    <i name="e_fr_energy">   -103.56455033 </i>
    <i name="e_wo_entrp">   -103.56455033 </i>
    <i name="e_0_energy">   -103.56455033 </i>
   </energy>
  </scstep>
  <scstep>
   <time name="diag">    0.21    0.27</time>
   <time name="diis">    1.25    1.44</time>
   <time name="orth">    0.01    0.01</time>
   <time name="total">    3.53    4.23</time>
   <energy>
    <i name="e_fr_energy">   -103.56455535 </i>
    <i name="e_wo_entrp">   -103.56455535 </i>
    <i name="e_0_energy">   -103.56455535 </i>
   </energy>
  </scstep>
  <scstep>
   <time name="diag">    0.30    0.30</time>
   <time name="diis">    1.71    2.75</time>
   <time name="orth">    0.02    0.04</time>
   <time name="total">    4.31    5.66</time>
   <energy>
    <i name="e_fr_energy">   -103.56458742 </i>
    <i name="e_wo_entrp">   -103.56458742 </i>
    <i name="e_0_energy">   -103.56458742 </i>
   </energy>
  </scstep>
  <scstep>
   <time name="diag">    0.32    0.65</time>
   <time name="diis">    1.38    2.60</time>
   <time name="orth">    0.05    0.08</time>
   <time name="total">    3.63    6.09</time>
   <energy>
    <i name="alphaZ">      2.15216506 </i>
    <i name="ewald">   2569.53259850 </i>
    <i name="hartreedc">  -3702.29017409 </i>
    <i name="XCdc">    140.62156734 </i>
    <i name="pawpsdc">   3472.01732403 </i>
    <i name="pawaedc">  -3478.32850442 </i>
    <i name="eentropy">     -0.00000000 </i>
    <i name="bandstr">   -513.94283283 </i>
    <i name="atom">   1406.67326350 </i>
    <i name="e_fr_energy">   -103.56459291 </i>
    <i name="e_wo_entrp">   -103.56459291 </i>
    <i name="e_0_energy">   -103.56459291 </i>
   </energy>
  </scstep>
  <structure>
   <crystal>
    <varray name="basis" >
     <v>      15.40225029       0.00000000       0.00000000 </v>
     <v>       0.00000000      15.40225029       0.00000000 </v>
     <v>       0.00000000       0.00000000      15.40225029 </v>
    </varray>
    <i name="volume">   3653.86527022 </i>
    <varray name="rec_basis" >
     <v>       0.06492558       0.00000000       0.00000000 </v>
     <v>       0.00000000       0.06492558       0.00000000 </v>
     <v>       0.00000000       0.00000000       0.06492558 </v>
    </varray>
   </crystal>
   <varray name="positions" >
    <v>       0.34214714       0.43817717       0.56645369 </v>
    <v>       0.33871482       0.52476970       0.57260068 </v>
    <v>       0.41641370       0.58247420       0.56035773 </v>
    <v>       0.42362299       0.38991967       0.54282759 </v>
    <v>       0.50493349       0.44554991       0.55591675 </v>
    <v>       0.48956550       0.53413977       0.51224621 </v>
    <v>       0.56863377       0.58604886       0.50914434 </v>
    <v>       0.28354287       0.39991258       0.57809773 </v>
    <v>       0.42801197       0.32840243       0.57893447 </v>
    <v>       0.42095476       0.37133249       0.47353992 </v>
    <v>       0.27717745       0.55678726       0.58752533 </v>
    <v>       0.44200701       0.60316711       0.62402687 </v>
    <v>       0.39896656       0.64257603       0.52595682 </v>
    <v>       0.56253787       0.41366974       0.52851296 </v>
    <v>       0.51766800       0.45670206       0.62542104 </v>
    <v>       0.46869393       0.52229185       0.44465418 </v>
    <v>       0.63201027       0.62726580       0.50846841 </v>
   </varray>
  </structure>
  <varray name="forces" >
   <v>      -0.02588276      -0.05814018      -0.07661303 </v>
   <v>      -0.02989518       0.08464999       0.08072818 </v>
   <v>       0.02988763       0.02965869      -0.01719315 </v>
   <v>       0.11556545       0.00273900       0.01470490 </v>
   <v>      -0.02886565      -0.11149868      -0.00017633 </v>
   <v>       0.05256943       0.08676678      -0.00954711 </v>
   <v>      -0.26943613      -0.17469479       0.00287192 </v>
   <v>      -0.04673269      -0.00618246      -0.09012558 </v>
   <v>       0.04749142       0.01768003       0.07559902 </v>
   <v>      -0.10897849      -0.12381097      -0.01411583 </v>
   <v>      -0.00633544      -0.00777034       0.10266412 </v>
   <v>      -0.06729789       0.08012338       0.06056248 </v>
   <v>      -0.02313653       0.00182580      -0.06881395 </v>
   <v>       0.02081738      -0.02446404      -0.02335164 </v>
   <v>      -0.00606350      -0.05384630       0.01575103 </v>
   <v>       0.01971168       0.03956892      -0.04045382 </v>
   <v>       0.32658128       0.21739516      -0.01249122 </v>
  </varray>
  <varray name="stress" >
   <v>      -0.54343636       0.08454262      -0.03937463 </v>
   <v>       0.08454262      -0.45270783       0.02598934 </v>
   <v>      -0.03937463       0.02598934      -0.73206560 </v>
  </varray>
  <energy>
   <i name="e_fr_energy">   -103.76341902 </i>
   <i name="e_wo_entrp">   -103.76341902 </i>
   <i name="e_0_energy">   -103.76341902 </i>
  </energy>
  <time name="totalsc">   35.95   49.15</time>
 </calculation>
 <calculation>
  <scstep>
   <time name="dav">    1.92    3.40</time>
   <time name="total">    3.85    6.22</time>
   <energy>
    <i name="alphaZ">      2.15216506 </i>
    <i name="ewald">   2567.15295681 </i>
    <i name="hartreedc">  -3700.50191664 </i>
    <i name="XCdc">    140.59108469 </i>
    <i name="pawpsdc">   3471.12213410 </i>
    <i name="pawaedc">  -3477.43336357 </i>
    <i name="eentropy">     -0.00000000 </i>
    <i name="bandstr">   -513.32338559 </i>
    <i name="atom">   1406.67326350 </i>
    <i name="e_fr_energy">   -103.56706165 </i>
    <i name="e_wo_entrp">   -103.56706165 </i>
    <i name="e_0_energy">   -103.56706165 </i>
   </energy>
  </scstep>
  <scstep>
   <time name="diag">    0.70    0.72</time>
   <time name="diis">    2.30    2.38</time>
   <time name="orth">    0.02    0.02</time>
   <time name="total">    6.36    7.24</time>
   <energy>
    <i name="e_fr_energy">   -103.56708010 </i>
    <i name="e_wo_entrp">   -103.56708010 </i>
    <i name="e_0_energy">   -103.56708010 </i>
   </energy>
  </scstep>
  <scstep>
   <time name="diag">    0.41    0.49</time>
   <time name="diis">    1.79    2.72</time>
   <time name="orth">    0.02    0.03</time>
   <time name="total">    4.19    6.95</time>
   <energy>
    <i name="e_fr_energy">   -103.56704291 </i>
    <i name="e_wo_entrp">   -103.56704291 </i>
    <i name="e_0_energy">   -103.56704291 </i>
   </energy>
  </scstep>
  <scstep>
   <time name="diag">    0.17    0.30</time>
   <time name="diis">    1.09    1.80</time>
   <time name="orth">    0.01    0.02</time>
   <time name="total">    2.41    3.62</time>
   <energy>
    <i name="e_fr_energy">   -103.56705364 </i>
    <i name="e_wo_entrp">   -103.56705364 </i>
    <i name="e_0_energy">   -103.56705364 </i>
   </energy>
  </scstep>
  <scstep>
   <time name="diag">    0.19    0.27</time>
   <time name="diis">    0.50    0.87</time>
   <time name="orth">    0.00    0.00</time>
   <time name="total">    1.72    2.53</time>
   <energy>
    <i name="alphaZ">      2.15216506 </i>
    <i name="ewald">   2567.15295681 </i>
    <i name="hartreedc">  -3700.03399073 </i>
    <i name="XCdc">    140.56826837 </i>
    <i name="pawpsdc">   3460.89719308 </i>
    <i name="pawaedc">  -3467.20034721 </i>
    <i name="eentropy">     -0.00000000 </i>
    <i name="bandstr">   -513.77656672 </i>
    <i name="atom">   1406.67326350 </i>
    <i name="e_fr_energy">   -103.56705784 </i>
    <i name="e_wo_entrp">   -103.56705784 </i>
    <i name="e_0_energy">   -103.56705784 </i>
   </energy>
  </scstep>
  <structure>
   <crystal>
    <varray name="basis" >
     <v>      15.40225029       0.00000000       0.00000000 </v>
     <v>       0.00000000      15.40225029       0.00000000 </v>
     <v>       0.00000000       0.00000000      15.40225029 </v>
    </varray>
    <i name="volume">   3653.86527022 </i>
    <varray name="rec_basis" >
     <v>       0.06492558       0.00000000       0.00000000 </v>
     <v>       0.00000000       0.06492558       0.00000000 </v>
     <v>       0.00000000       0.00000000       0.06492558 </v>
    </varray>
   </crystal>
   <varray name="positions" >
    <v>       0.34213322       0.43816640       0.56637789 </v>
    <v>       0.33870268       0.52480526       0.57266826 </v>
    <v>       0.41642116       0.58251740       0.56038601 </v>
    <v>       0.42365348       0.38988946       0.54283699 </v>
    <v>       0.50495798       0.44551017       0.55592419 </v>
    <v>       0.48964281       0.53419472       0.51228091 </v>
    <v>       0.56855944       0.58598252       0.50919058 </v>
    <v>       0.28351655       0.39991088       0.57793099 </v>
    <v>       0.42809521       0.32842146       0.57907163 </v>
    <v>       0.42084455       0.37114351       0.47356645 </v>
    <v>       0.27716649       0.55677802       0.58765957 </v>
    <v>       0.44189456       0.60329145       0.62410663 </v>
    <v>       0.39895531       0.64256884       0.52586649 </v>
    <v>       0.56259466       0.41362768       0.52853667 </v>
    <v>       0.51765609       0.45661295       0.62547505 </v>
    <v>       0.46877712       0.52235611       0.44465038 </v>
    <v>       0.63223607       0.62741256       0.50854909 </v>
   </varray>
  </structure>
  <varray name="forces" >
   <v>      -0.01432957      -0.01478740      -0.06310327 </v>
   <v>      -0.01138867       0.03365258       0.06250899 </v>
   <v>       0.02049585       0.03112956      -0.00893341 </v>
   <v>       0.09748288      -0.00246017       0.00489076 </v>
   <v>      -0.02247031      -0.10028426       0.00097173 </v>
   <v>      -0.02148009       0.02711638      -0.00528717 </v>
   <v>       0.33735364       0.22228762       0.00039059 </v>
   <v>      -0.04985904      -0.00931319      -0.08757161 </v>
   <v>       0.04090386       0.02669619       0.06933015 </v>
   <v>      -0.09598064      -0.11788050      -0.00176919 </v>
   <v>      -0.00790892      -0.00417585       0.09989401 </v>
   <v>      -0.06263419       0.07756842       0.04378589 </v>
   <v>      -0.02125370      -0.00392687      -0.06049330 </v>
   <v>       0.01192690      -0.01890094      -0.02048460 </v>
   <v>      -0.00779200      -0.05314741       0.00032933 </v>
   <v>       0.01833404       0.03925432      -0.02748504 </v>
   <v>      -0.21140007      -0.13282849      -0.00697385 </v>
  </varray>
  <varray name="stress" >
   <v>      -0.75824173      -0.02893591      -0.03686596 </v>
   <v>      -0.02893590      -0.58458571       0.02680358 </v>
   <v>      -0.03686596       0.02680358      -0.76829182 </v>
  </varray>
  <energy>
   <i name="e_fr_energy">   -103.76582775 </i>
   <i name="e_wo_entrp">   -103.76582775 </i>
   <i name="e_0_energy">   -103.76582775 </i>
  </energy>
  <time name="totalsc">   37.09   48.82</time>
 </calculation>
 <calculation>
  <scstep>
   <time name="dav">    2.47    3.09</time>
   <time name="total">    4.80    5.85</time>
   <energy>
    <i name="alphaZ">      2.15216506 </i>
    <i name="ewald">   2565.47540057 </i>
    <i name="hartreedc">  -3698.37622389 </i>
    <i name="XCdc">    140.55677410 </i>
    <i name="pawpsdc">   3459.69838764 </i>
    <i name="pawaedc">  -3466.00142042 </i>
    <i name="eentropy">     -0.00000000 </i>
    <i name="bandstr">   -513.74856102 </i>
    <i name="atom">   1406.67326350 </i>
    <i name="e_fr_energy">   -103.57021446 </i>
    <i name="e_wo_entrp">   -103.57021446 </i>
    <i name="e_0_energy">   -103.57021446 </i>
   </energy>
  </scstep>
  <scstep>
   <time name="diag">    0.92    0.92</time>
   <time name="diis">    2.03    2.23</time>
   <time name="orth">    0.03    0.04</time>
   <time name="total">    5.25    5.94</time>
   <energy>
    <i name="e_fr_energy">   -103.57019203 </i>
    <i name="e_wo_entrp">   -103.57019203 </i>
    <i name="e_0_energy">   -103.57019203 </i>
   </energy>
  </scstep>
  <scstep>
   <time name="diag">    0.35    0.53</time>
   <time name="diis">    1.62    2.16</time>
   <time name="orth">    0.02    0.02</time>
   <time name="total">    5.02    5.80</time>
   <energy>
    <i name="e_fr_energy">   -103.57016675 </i>
    <i name="e_wo_entrp">   -103.57016675 </i>
    <i name="e_0_energy">   -103.57016675 </i>
   </energy>
  </scstep>
  <scstep>
   <time name="diag">    0.20    0.43</time>
   <time name="diis">    1.60    2.30</time>
   <time name="orth">    0.01    0.03</time>
   <time name="total">    2.99    4.83</time>
   <energy>
    <i name="e_fr_energy">   -103.57017794 </i>
    <i name="e_wo_entrp">   -103.57017794 </i>
    <i name="e_0_energy">   -103.57017794 </i>
   </energy>
  </scstep>
  <scstep>
   <time name="diag">    0.45    0.48</time>
   <time name="diis">    0.87    0.91</time>
   <time name="orth">    0.00    0.00</time>
   <time name="total">    2.67    3.44</time>
   <energy>
    <i name="alphaZ">      2.15216506 </i>
    <i name="ewald">   2565.47540057 </i>
    <i name="hartreedc">  -3698.41591435 </i>
    <i name="XCdc">    140.56313554 </i>
    <i name="pawpsdc">   3461.42749600 </i>
    <i name="pawaedc">  -3467.73314770 </i>
    <i name="eentropy">     -0.00000000 </i>
    <i name="bandstr">   -513.71257750 </i>
    <i name="atom">   1406.67326350 </i>
    <i name="e_fr_energy">   -103.57017888 </i>
    <i name="e_wo_entrp">   -103.57017888 </i>
    <i name="e_0_energy">   -103.57017888 </i>
   </energy>
  </scstep>
  <structure>
   <crystal>
    <varray name="basis" >
     <v>      15.40225029       0.00000000       0.00000000 </v>
     <v>       0.00000000      15.40225029       0.00000000 </v>
     <v>       0.00000000       0.00000000      15.40225029 </v>
    </varray>
    <i name="volume">   3653.86527022 </i>
    <varray name="rec_basis" >
     <v>       0.06492558       0.00000000       0.00000000 </v>
     <v>       0.00000000       0.06492558       0.00000000 </v>
     <v>       0.00000000       0.00000000       0.06492558 </v>
    </varray>
   </crystal>
   <varray name="positions" >
    <v>       0.34211254       0.43815912       0.56625323 </v>
    <v>       0.33868976       0.52484524       0.57277811 </v>
    <v>       0.41643755       0.58258843       0.56042205 </v>
    <v>       0.42372972       0.38984375       0.54284752 </v>
    <v>       0.50498967       0.44542471       0.55595027 </v>
    <v>       0.48970108       0.53424501       0.51231598 </v>
    <v>       0.56881620       0.58612877       0.50925367 </v>
    <v>       0.28346235       0.39989937       0.57771257 </v>
    <v>       0.42820829       0.32844786       0.57926143 </v>
    <v>       0.42068446       0.37088795       0.47359754 </v>
    <v>       0.27713939       0.55677338       0.58784360 </v>
    <v>       0.44174167       0.60345930       0.62422400 </v>
    <v>       0.39893540       0.64256723       0.52573459 </v>
    <v>       0.56266766       0.41357103       0.52855805 </v>
    <v>       0.51763970       0.45649492       0.62555523 </v>
    <v>       0.46887984       0.52244172       0.44462701 </v>
    <v>       0.63223950       0.62741523       0.50865481 </v>
   </varray>
  </structure>
  <varray name="forces" >
   <v>       0.00149235       0.02279543      -0.03809346 </v>
   <v>       0.00727154      -0.01425483       0.03462333 </v>
   <v>       0.01681770       0.02393314      -0.00154743 </v>
   <v>       0.04687528      -0.01460379      -0.00746003 </v>
   <v>      -0.00560864      -0.04732455      -0.01246713 </v>
   <v>       0.03875363       0.04218167       0.00641916 </v>
   <v>      -0.17700723      -0.11069883       0.01428093 </v>
   <v>      -0.04154675      -0.00643744      -0.08714598 </v>
   <v>       0.03095219       0.03693799       0.05977549 </v>
   <v>      -0.07371292      -0.10892939       0.01741210 </v>
   <v>      -0.00266981      -0.00444970       0.09533247 </v>
   <v>      -0.05591603       0.07446130       0.01875597 </v>
   <v>      -0.01915070      -0.01251980      -0.04685358 </v>
   <v>       0.00279313      -0.01389192      -0.01544877 </v>
   <v>      -0.00956771      -0.05426472      -0.01893734 </v>
   <v>       0.02374847       0.04305968      -0.00599162 </v>
   <v>       0.21647550       0.14400575      -0.01265410 </v>
  </varray>
  <varray name="stress" >
   <v>      -0.66557268       0.08118384      -0.03325630 </v>
   <v>       0.08118384      -0.61026342       0.03052185 </v>
   <v>      -0.03325630       0.03052185      -0.82788470 </v>
  </varray>
  <energy>
   <i name="e_fr_energy">   -103.76896198 </i>
   <i name="e_wo_entrp">   -103.76896198 </i>
   <i name="e_0_energy">   -103.76896198 </i>
  </energy>
  <time name="totalsc">   33.74   43.59</time>
 </calculation>
 <calculation>
  <scstep>
   <time name="dav">    1.34    2.27</time>
   <time name="total">    3.21    5.31</time>
   <energy>
    <i name="alphaZ">      2.15216506 </i>
    <i name="ewald">   2564.18613920 </i>
    <i name="hartreedc">  -3697.42858328 </i>
[...]
    <v>       0.41620392       0.58312601       0.56050008 </v>
    <v>       0.42319267       0.38918012       0.54250721 </v>
    <v>       0.50482410       0.44484169       0.55320742 </v>
    <v>       0.48970376       0.53504874       0.51215695 </v>
    <v>       0.56906798       0.58674708       0.50972838 </v>
    <v>       0.28244932       0.40045015       0.57392874 </v>
    <v>       0.42823818       0.33070871       0.58351704 </v>
    <v>       0.41871597       0.36464042       0.47512766 </v>
    <v>       0.27808791       0.55631058       0.59204500 </v>
    <v>       0.44079788       0.60726789       0.62342911 </v>
    <v>       0.39704245       0.64133634       0.52358139 </v>
    <v>       0.56155592       0.41315586       0.52367438 </v>
    <v>       0.51941455       0.45386265       0.62268695 </v>
    <v>       0.46904600       0.52528042       0.44408724 </v>
    <v>       0.63261544       0.62808993       0.50847292 </v>
   </varray>
  </structure>
  <varray name="forces" >
   <v>      -0.00029974       0.00020573      -0.00032297 </v>
   <v>      -0.00026612      -0.00021169       0.00054717 </v>
   <v>      -0.00144151       0.00090985      -0.00168891 </v>
   <v>      -0.00055870      -0.00111368       0.00218778 </v>
   <v>       0.00115504      -0.00123015      -0.00580956 </v>
   <v>       0.00092829       0.00133346      -0.00120512 </v>
   <v>      -0.00479936      -0.00254107       0.00520365 </v>
   <v>      -0.00074514       0.00046593      -0.00156012 </v>
   <v>       0.00011591       0.00397621       0.00783508 </v>
   <v>      -0.00230779      -0.00874342       0.00460311 </v>
   <v>       0.00005336      -0.00031252       0.00198498 </v>
   <v>      -0.00143436       0.00449416      -0.00181845 </v>
   <v>      -0.00306111      -0.00170329      -0.00346797 </v>
   <v>      -0.00245886      -0.00013455      -0.01067330 </v>
   <v>       0.00749613      -0.00275630      -0.00448894 </v>
   <v>       0.00171994       0.00423226      -0.00124021 </v>
   <v>       0.00590401       0.00312909       0.00991377 </v>
  </varray>
  <varray name="stress" >
   <v>      -0.84051779       0.01026450       0.00390792 </v>
   <v>       0.01026450      -0.82550339       0.00951048 </v>
   <v>       0.00390792       0.00951048      -0.85660039 </v>
  </varray>
  <energy>
   <i name="e_fr_energy">   -103.79508110 </i>
   <i name="e_wo_entrp">   -103.79508110 </i>
   <i name="e_0_energy">   -103.79508110 </i>
  </energy>
  <time name="totalsc">   20.54   29.29</time>
 </calculation>
 <calculation>
  <scstep>
   <time name="dav">    2.04    2.76</time>
   <time name="total">    3.43    5.37</time>
   <energy>
    <i name="alphaZ">      2.15216506 </i>
    <i name="ewald">   2555.06235601 </i>
    <i name="hartreedc">  -3688.33478678 </i>
    <i name="XCdc">    140.50142606 </i>
    <i name="pawpsdc">   3450.64243800 </i>
    <i name="pawaedc">  -3456.94219583 </i>
    <i name="eentropy">     -0.00000000 </i>
    <i name="bandstr">   -513.35220364 </i>
    <i name="atom">   1406.67326350 </i>
    <i name="e_fr_energy">   -103.59753761 </i>
    <i name="e_wo_entrp">   -103.59753761 </i>
    <i name="e_0_energy">   -103.59753761 </i>
   </energy>
  </scstep>
  <scstep>
   <time name="diag">    0.32    0.51</time>
   <time name="diis">    1.44    1.92</time>
   <time name="orth">    0.01    0.01</time>
   <time name="total">    3.00    3.76</time>
   <energy>
    <i name="alphaZ">      2.15216506 </i>
    <i name="ewald">   2555.06235601 </i>
    <i name="hartreedc">  -3688.32976409 </i>
    <i name="XCdc">    140.50115481 </i>
    <i name="pawpsdc">   3450.63200022 </i>
    <i name="pawaedc">  -3456.93168273 </i>
    <i name="eentropy">     -0.00000000 </i>
    <i name="bandstr">   -513.35703588 </i>
    <i name="atom">   1406.67326350 </i>
    <i name="e_fr_energy">   -103.59754309 </i>
    <i name="e_wo_entrp">   -103.59754309 </i>
    <i name="e_0_energy">   -103.59754309 </i>
   </energy>
  </scstep>
  <structure>
   <crystal>
    <varray name="basis" >
     <v>      15.40225029       0.00000000       0.00000000 </v>
     <v>       0.00000000      15.40225029       0.00000000 </v>
     <v>       0.00000000       0.00000000      15.40225029 </v>
    </varray>
    <i name="volume">   3653.86527022 </i>
    <varray name="rec_basis" >
     <v>       0.06492558       0.00000000       0.00000000 </v>
     <v>       0.00000000       0.06492558       0.00000000 </v>
     <v>       0.00000000       0.00000000       0.06492558 </v>
    </varray>
   </crystal>
   <varray name="positions" >
    <v>       0.34183116       0.43832182       0.56483476 </v>
    <v>       0.33914376       0.52476948       0.57418284 </v>
    <v>       0.41619696       0.58312932       0.56049051 </v>
    <v>       0.42318643       0.38917524       0.54251469 </v>
    <v>       0.50482613       0.44483811       0.55316637 </v>
    <v>       0.48970007       0.53505775       0.51214402 </v>
    <v>       0.56906264       0.58675061       0.50974429 </v>
    <v>       0.28244242       0.40045393       0.57392009 </v>
    <v>       0.42823884       0.33073542       0.58356960 </v>
    <v>       0.41869175       0.36457581       0.47515783 </v>
    <v>       0.27808968       0.55630804       0.59206354 </v>
    <v>       0.44079203       0.60729557       0.62340965 </v>
    <v>       0.39701947       0.64132536       0.52355844 </v>
    <v>       0.56153213       0.41315400       0.52358426 </v>
    <v>       0.51946854       0.45384262       0.62263725 </v>
    <v>       0.46904571       0.52531051       0.44407071 </v>
    <v>       0.63262370       0.62809262       0.50853209 </v>
   </varray>
  </structure>
  <varray name="forces" >
   <v>      -0.00038091       0.00022758      -0.00028694 </v>
   <v>      -0.00027908      -0.00021907       0.00065789 </v>
   <v>      -0.00144238       0.00074419      -0.00126969 </v>
   <v>      -0.00090160      -0.00140030       0.00243586 </v>
   <v>       0.00083944      -0.00132714      -0.00537652 </v>
   <v>      -0.00133465      -0.00017216      -0.00084167 </v>
   <v>       0.01318575       0.00887374       0.00366748 </v>
   <v>      -0.00070475       0.00046719      -0.00117732 </v>
   <v>       0.00013033       0.00397601       0.00774202 </v>
   <v>      -0.00241987      -0.00820349       0.00462137 </v>
   <v>      -0.00008334      -0.00012629       0.00163832 </v>
   <v>      -0.00153470       0.00410490      -0.00149388 </v>
   <v>      -0.00294576      -0.00130553      -0.00339357 </v>
   <v>      -0.00238164      -0.00011903      -0.01052992 </v>
   <v>       0.00752308      -0.00265383      -0.00419560 </v>
   <v>       0.00167663       0.00391639      -0.00126428 </v>
   <v>      -0.00894656      -0.00678316       0.00906644 </v>
  </varray>
  <varray name="stress" >
   <v>      -0.84715797       0.00678624       0.00334439 </v>
   <v>       0.00678625      -0.82912410       0.00815703 </v>
   <v>       0.00334439       0.00815703      -0.85814980 </v>
  </varray>
  <energy>
   <i name="e_fr_energy">   -103.79515437 </i>
   <i name="e_wo_entrp">   -103.79515437 </i>
   <i name="e_0_energy">   -103.79515437 </i>
  </energy>
  <time name="totalsc">   18.95   25.76</time>
 </calculation>
 <calculation>
  <scstep>
   <time name="dav">    1.83    2.15</time>
   <time name="total">    3.50    3.91</time>
   <energy>
    <i name="alphaZ">      2.15216506 </i>
    <i name="ewald">   2555.10981374 </i>
    <i name="hartreedc">  -3688.36378491 </i>
    <i name="XCdc">    140.50145241 </i>
    <i name="pawpsdc">   3450.56392644 </i>
    <i name="pawaedc">  -3456.86350967 </i>
    <i name="eentropy">     -0.00000000 </i>
    <i name="bandstr">   -513.37082514 </i>
    <i name="atom">   1406.67326350 </i>
    <i name="e_fr_energy">   -103.59749857 </i>
    <i name="e_wo_entrp">   -103.59749857 </i>
    <i name="e_0_energy">   -103.59749857 </i>
   </energy>
  </scstep>
  <scstep>
   <time name="diag">    0.18    0.23</time>
   <time name="diis">    0.86    0.98</time>
   <time name="orth">    0.01    0.01</time>
   <time name="total">    2.05    2.26</time>
   <energy>
    <i name="alphaZ">      2.15216506 </i>
    <i name="ewald">   2555.10981374 </i>
    <i name="hartreedc">  -3688.36867530 </i>
    <i name="XCdc">    140.50169352 </i>
    <i name="pawpsdc">   3450.51965829 </i>
    <i name="pawaedc">  -3456.81929249 </i>
    <i name="eentropy">     -0.00000000 </i>
    <i name="bandstr">   -513.36612681 </i>
    <i name="atom">   1406.67326350 </i>
    <i name="e_fr_energy">   -103.59750048 </i>
    <i name="e_wo_entrp">   -103.59750048 </i>
    <i name="e_0_energy">   -103.59750048 </i>
   </energy>
  </scstep>
  <structure>
   <crystal>
    <varray name="basis" >
     <v>      15.40225029       0.00000000       0.00000000 </v>
     <v>       0.00000000      15.40225029       0.00000000 </v>
     <v>       0.00000000       0.00000000      15.40225029 </v>
    </varray>
    <i name="volume">   3653.86527022 </i>
    <varray name="rec_basis" >
     <v>       0.06492558       0.00000000       0.00000000 </v>
     <v>       0.00000000       0.06492558       0.00000000 </v>
     <v>       0.00000000       0.00000000       0.06492558 </v>
    </varray>
   </crystal>
   <varray name="positions" >
    <v>       0.34183316       0.43832137       0.56483610 </v>
    <v>       0.33914405       0.52476938       0.57418033 </v>
    <v>       0.41620022       0.58312783       0.56049519 </v>
    <v>       0.42318952       0.38917743       0.54251136 </v>
    <v>       0.50482533       0.44483946       0.55318687 </v>
    <v>       0.48970189       0.53505276       0.51215052 </v>
    <v>       0.56906684       0.58674967       0.50973639 </v>
    <v>       0.28244605       0.40045201       0.57392473 </v>
    <v>       0.42823850       0.33072184       0.58354253 </v>
    <v>       0.41870432       0.36460943       0.47514235 </v>
    <v>       0.27808866       0.55630951       0.59205376 </v>
    <v>       0.44079498       0.60728129       0.62342010 </v>
    <v>       0.39703137       0.64133115       0.52357029 </v>
    <v>       0.56154452       0.41315500       0.52363096 </v>
    <v>       0.51944085       0.45385300       0.62266361 </v>
    <v>       0.46904607       0.52529493       0.44407945 </v>
    <v>       0.63261824       0.62809046       0.50850073 </v>
   </varray>
  </structure>
  <varray name="forces" >
   <v>      -0.00033313       0.00031900      -0.00009030 </v>
   <v>      -0.00008802      -0.00039403       0.00067362 </v>
   <v>      -0.00095311       0.00049812      -0.00153423 </v>
   <v>      -0.00106085      -0.00134385       0.00166033 </v>
   <v>      -0.00079939      -0.00038984      -0.00736558 </v>
   <v>      -0.00026979       0.00240190      -0.00242464 </v>
   <v>      -0.00229564      -0.00090309       0.00676874 </v>
   <v>      -0.00055389       0.00024084      -0.00133119 </v>
   <v>       0.00063700       0.00378330       0.00883346 </v>
   <v>      -0.00228768      -0.00935543       0.00524516 </v>
   <v>       0.00031480      -0.00049428       0.00192412 </v>
   <v>      -0.00140121       0.00435693      -0.00269048 </v>
   <v>      -0.00315822      -0.00149676      -0.00405714 </v>
   <v>      -0.00170263      -0.00078381      -0.01214848 </v>
   <v>       0.00808718      -0.00327388      -0.00680194 </v>
   <v>       0.00191070       0.00470327      -0.00200045 </v>
   <v>       0.00395389       0.00213162       0.01533900 </v>
  </varray>
  <varray name="stress" >
   <v>      -0.84083336       0.00870273       0.00431583 </v>
   <v>       0.00870272      -0.82492998       0.01009558 </v>
   <v>       0.00431584       0.01009558      -0.85574747 </v>
  </varray>
  <energy>
   <i name="e_fr_energy">   -103.79511813 </i>
   <i name="e_wo_entrp">   -103.79511813 </i>
   <i name="e_0_energy">   -103.79511813 </i>
  </energy>
  <time name="totalsc">   17.70   22.01</time>
 </calculation>
 <calculation>
  <scstep>
   <time name="dav">    1.61    1.86</time>
   <time name="total">    3.60    4.01</time>
   <energy>
    <i name="alphaZ">      2.15216506 </i>
    <i name="ewald">   2555.09445972 </i>
    <i name="hartreedc">  -3688.35831829 </i>
    <i name="XCdc">    140.50179611 </i>
    <i name="pawpsdc">   3450.51311688 </i>
    <i name="pawaedc">  -3456.81280466 </i>
    <i name="eentropy">     -0.00000000 </i>
    <i name="bandstr">   -513.36120152 </i>
    <i name="atom">   1406.67326350 </i>
    <i name="e_fr_energy">   -103.59752321 </i>
    <i name="e_wo_entrp">   -103.59752321 </i>
    <i name="e_0_energy">   -103.59752321 </i>
   </energy>
  </scstep>
  <scstep>
   <time name="diag">    0.25    0.25</time>
   <time name="diis">    0.93    1.76</time>
   <time name="orth">    0.01    0.03</time>
   <time name="total">    2.82    3.91</time>
   <energy>
    <i name="alphaZ">      2.15216506 </i>
    <i name="ewald">   2555.09445972 </i>
    <i name="hartreedc">  -3688.35840105 </i>
    <i name="XCdc">    140.50181297 </i>
    <i name="pawpsdc">   3450.52929838 </i>
    <i name="pawaedc">  -3456.82899417 </i>
    <i name="eentropy">     -0.00000000 </i>
    <i name="bandstr">   -513.36112820 </i>
    <i name="atom">   1406.67326350 </i>
    <i name="e_fr_energy">   -103.59752379 </i>
    <i name="e_wo_entrp">   -103.59752379 </i>
    <i name="e_0_energy">   -103.59752379 </i>
   </energy>
  </scstep>
  <structure>
   <crystal>
    <varray name="basis" >
     <v>      15.40225029       0.00000000       0.00000000 </v>
     <v>       0.00000000      15.40225029       0.00000000 </v>
     <v>       0.00000000       0.00000000      15.40225029 </v>
    </varray>
    <i name="volume">   3653.86527022 </i>
    <varray name="rec_basis" >
     <v>       0.06492558       0.00000000       0.00000000 </v>
     <v>       0.00000000       0.06492558       0.00000000 </v>
     <v>       0.00000000       0.00000000       0.06492558 </v>
    </varray>
   </crystal>
   <varray name="positions" >
    <v>       0.34183218       0.43832175       0.56483566 </v>
    <v>       0.33914383       0.52476925       0.57418166 </v>
    <v>       0.41619843       0.58312866       0.56049260 </v>
    <v>       0.42318763       0.38917587       0.54251339 </v>
    <v>       0.50482519       0.44483857       0.55317518 </v>
    <v>       0.48970046       0.53505536       0.51214653 </v>
    <v>       0.56906667       0.58675134       0.50974135 </v>
    <v>       0.28244441       0.40045290       0.57392274 </v>
    <v>       0.42823890       0.33072873       0.58355641 </v>
    <v>       0.41869816       0.36459281       0.47515038 </v>
    <v>       0.27808916       0.55630889       0.59205836 </v>
    <v>       0.44079348       0.60728831       0.62341501 </v>
    <v>       0.39702547       0.64132851       0.52356419 </v>
    <v>       0.56153881       0.41315428       0.52360736 </v>
    <v>       0.51945502       0.45384768       0.62265035 </v>
    <v>       0.46904618       0.52530280       0.44407501 </v>
    <v>       0.63261936       0.62809065       0.50851755 </v>
   </varray>
  </structure>
  <varray name="forces" >
   <v>      -0.00029580      -0.00003066      -0.00000525 </v>
   <v>      -0.00014709       0.00000474       0.00061740 </v>
   <v>      -0.00104362       0.00047685      -0.00085180 </v>
   <v>      -0.00067808      -0.00079741       0.00152985 </v>
   <v>       0.00015982      -0.00045737      -0.00417200 </v>
   <v>       0.00016185       0.00136757      -0.00085085 </v>
   <v>      -0.00142395      -0.00056647       0.00439764 </v>
   <v>      -0.00062402       0.00031427      -0.00114330 </v>
   <v>       0.00045391       0.00363020       0.00842552 </v>
   <v>      -0.00234974      -0.00877907       0.00485858 </v>
   <v>       0.00006919      -0.00034965       0.00182680 </v>
   <v>      -0.00147956       0.00415054      -0.00214574 </v>
   <v>      -0.00306931      -0.00139214      -0.00360699 </v>
   <v>      -0.00228865      -0.00036224      -0.01100033 </v>
   <v>       0.00753136      -0.00304704      -0.00625110 </v>
   <v>       0.00171208       0.00434562      -0.00206834 </v>
   <v>       0.00331161       0.00149228       0.01043990 </v>
  </varray>
  <varray name="stress" >
   <v>      -0.84188478       0.00905205       0.00371291 </v>
   <v>       0.00905205      -0.82602150       0.00923193 </v>
   <v>       0.00371291       0.00923192      -0.85718436 </v>
  </varray>
  <energy>
   <i name="e_fr_energy">   -103.79513873 </i>
   <i name="e_wo_entrp">   -103.79513873 </i>
   <i name="e_0_energy">   -103.79513873 </i>
  </energy>
  <time name="totalsc">   15.15   18.33</time>
  <eigenvalues>
   <array>
    <dimension dim="1">band</dimension>
    <dimension dim="2">kpoint</dimension>
    <dimension dim="3">spin</dimension>
    <field>eigene</field>
    <field>occ</field>
    <set>
     <set comment="spin 1">
      <set comment="kpoint 1">
       <r>  -22.2828    1.0000 </r>
       <r>  -21.2005    1.0000 </r>
       <r>  -19.0955    1.0000 </r>
       <r>  -18.7167    1.0000 </r>
       <r>  -15.9951    1.0000 </r>
       <r>  -15.4528    1.0000 </r>
       <r>  -13.0974    1.0000 </r>
       <r>  -13.0226    1.0000 </r>
       <r>  -11.7723    1.0000 </r>
       <r>  -10.9992    1.0000 </r>
       <r>  -10.5175    1.0000 </r>
       <r>  -10.3641    1.0000 </r>
       <r>   -9.8247    1.0000 </r>
       <r>   -9.6596    1.0000 </r>
       <r>   -8.7587    1.0000 </r>
       <r>   -8.5400    1.0000 </r>
       <r>   -8.2887    1.0000 </r>
       <r>   -7.9125    1.0000 </r>
       <r>   -7.5769    1.0000 </r>
       <r>   -7.4743    1.0000 </r>
       <r>   -6.1287    1.0000 </r>
       <r>   -0.9438    0.0000 </r>
       <r>   -0.5843    0.0000 </r>
       <r>   -0.1471    0.0000 </r>
       <r>   -0.0792    0.0000 </r>
       <r>   -0.0354    0.0000 </r>
       <r>    0.0358    0.0000 </r>
       <r>    0.1745    0.0000 </r>
       <r>    0.3835    0.0000 </r>
       <r>    0.4945    0.0000 </r>
      </set>
     </set>
    </set>
   </array>
  </eigenvalues>
  <separator name="orbital magnetization" >
   <v name="MAGDIPOLOUT">      0.00000000      0.00000000      0.00000000</v>
  </separator>
 </calculation>
 <structure name="finalpos" >
  <crystal>
   <varray name="basis" >
    <v>      15.40225029       0.00000000       0.00000000 </v>
    <v>       0.00000000      15.40225029       0.00000000 </v>
    <v>       0.00000000       0.00000000      15.40225029 </v>
   </varray>
   <i name="volume">   3653.86527022 </i>
   <varray name="rec_basis" >
    <v>       0.06492558       0.00000000       0.00000000 </v>
    <v>       0.00000000       0.06492558       0.00000000 </v>
    <v>       0.00000000       0.00000000       0.06492558 </v>
   </varray>
  </crystal>
  <varray name="positions" >
   <v>       0.34183218       0.43832175       0.56483566 </v>
   <v>       0.33914383       0.52476925       0.57418166 </v>
   <v>       0.41619843       0.58312866       0.56049260 </v>
   <v>       0.42318763       0.38917587       0.54251339 </v>
   <v>       0.50482519       0.44483857       0.55317518 </v>
   <v>       0.48970046       0.53505536       0.51214653 </v>
   <v>       0.56906667       0.58675134       0.50974135 </v>
   <v>       0.28244441       0.40045290       0.57392274 </v>
   <v>       0.42823890       0.33072873       0.58355641 </v>
   <v>       0.41869816       0.36459281       0.47515038 </v>
   <v>       0.27808916       0.55630889       0.59205836 </v>
   <v>       0.44079348       0.60728831       0.62341501 </v>
   <v>       0.39702547       0.64132851       0.52356419 </v>
   <v>       0.56153881       0.41315428       0.52360736 </v>
   <v>       0.51945502       0.45384768       0.62265035 </v>
   <v>       0.46904618       0.52530280       0.44407501 </v>
   <v>       0.63261936       0.62809065       0.50851755 </v>
  </varray>
 </structure>
</modeling>
