unknown system                          
           1
    15.402250    0.000000    0.000000
     0.000000   15.402250    0.000000
     0.000000    0.000000   15.402250
   C    H    N 
     7     9     1
Direct configuration=     1
   0.34246901  0.43796370  0.56756027
   0.33892834  0.52479466  0.57159380
   0.41625752  0.58180086  0.56019453
   0.42293719  0.39037574  0.54268955
   0.50463045  0.44616057  0.55563018
   0.48911458  0.53385738  0.51222543
   0.56779668  0.58564377  0.50880920
   0.28392917  0.40010788  0.57897407
   0.42729890  0.32859280  0.57785319
   0.42194152  0.37248569  0.47366945
   0.27763973  0.55661891  0.58672164
   0.44276400  0.60244023  0.62297729
   0.39908005  0.64229137  0.52685350
   0.56197458  0.41407966  0.52853393
   0.51768592  0.45714796  0.62431951
   0.46832578  0.52199287  0.44533076
   0.63131225  0.62681195  0.50784542
Direct configuration=     2
   0.34234819  0.43813684  0.56734717
   0.33881643  0.52466301  0.57181569
   0.41634859  0.58194743  0.56009210
   0.42331801  0.39035067  0.54282434
   0.50453376  0.44586129  0.55560920
   0.48918951  0.53399664  0.51225162
   0.56784785  0.58567370  0.50885203
   0.28382469  0.40005250  0.57892959
   0.42737958  0.32854244  0.57797593
   0.42179098  0.37236614  0.47353686
   0.27756279  0.55665550  0.58678622
   0.44270368  0.60251093  0.62320204
   0.39906378  0.64234842  0.52673292
   0.56205176  0.41402802  0.52849953
   0.51770606  0.45714452  0.62459705
   0.46831399  0.52199286  0.44512250
   0.63144324  0.62689724  0.50790789
Direct configuration=     3
   0.34225688  0.43808437  0.56706919
   0.33874441  0.52475481  0.57207660
   0.41641029  0.58208940  0.56009211
   0.42358449  0.39028192  0.54287085
   0.50455887  0.44563833  0.55571697
   0.48924233  0.53406745  0.51220466
   0.56807953  0.58580643  0.50891586
   0.28372374  0.39999930  0.57884220
   0.42749959  0.32847329  0.57816268
   0.42159587  0.37220991  0.47346025
   0.27745085  0.55670378  0.58688701
   0.44259120  0.60260345  0.62344358
   0.39903336  0.64244453  0.52655098
   0.56215561  0.41395348  0.52845935
   0.51771132  0.45710412  0.62485917
   0.46833436  0.52201860  0.44491864
   0.63150538  0.62693818  0.50800282
Direct configuration=     4
   0.34222486  0.43810274  0.56692329
   0.33873053  0.52475487  0.57220449
   0.41643302  0.58217202  0.56011871
   0.42366867  0.39021758  0.54287192
   0.50461183  0.44556901  0.55578583
   0.48929176  0.53409219  0.51217687
   0.56806146  0.58578126  0.50895684
   0.28366770  0.39996591  0.57877738
   0.42757498  0.32843885  0.57827491
   0.42148751  0.37211211  0.47344128
   0.27737612  0.55673772  0.58695758
   0.44251723  0.60266294  0.62356703
   0.39901780  0.64249626  0.52644555
   0.56221514  0.41390845  0.52844370
   0.51771005  0.45706877  0.62499025
   0.46835959  0.52204200  0.44482136
   0.63167904  0.62705069  0.50806161
Direct configuration=     5
   0.34221632  0.43812874  0.56683049
   0.33873931  0.52473855  0.57227909
   0.41643263  0.58223056  0.56016343
   0.42366332  0.39015345  0.54285118
   0.50468342  0.44556887  0.55583544
   0.48931855  0.53407934  0.51216177
   0.56817577  0.58584139  0.50898478
   0.28363565  0.39994513  0.57870653
   0.42763856  0.32841973  0.57836660
   0.42140817  0.37202405  0.47345104
   0.27732041  0.55676224  0.58702587
   0.44245029  0.60271829  0.62364414
   0.39900779  0.64252763  0.52636606
   0.56226091  0.41387235  0.52844150
   0.51770491  0.45702774  0.62506919
   0.46839310  0.52206903  0.44477115
   0.63170573  0.62706801  0.50811445
Direct configuration=     6
   0.34219363  0.43807432  0.56668923
   0.33873259  0.52481463  0.57239868
   0.41641274  0.58231597  0.56025548
   0.42359083  0.39005214  0.54282125
   0.50481460  0.44560708  0.55587141
   0.48942009  0.53408148  0.51218548
   0.56826397  0.58586288  0.50904188
   0.28361902  0.39994123  0.57848955
   0.42777620  0.32840507  0.57857331
   0.42124749  0.37178511  0.47349419
   0.27726775  0.55677134  0.58720002
   0.44228948  0.60287315  0.62377931
   0.39899166  0.64255342  0.52621406
   0.56236259  0.41379681  0.52846709
   0.51769104  0.45691095  0.62520160
   0.46850071  0.52214790  0.44472426
   0.63188723  0.62718579  0.50824325
Direct configuration=     7
   0.34214714  0.43817717  0.56645369
   0.33871482  0.52476970  0.57260068
   0.41641370  0.58247420  0.56035773
   0.42362299  0.38991967  0.54282759
   0.50493349  0.44554991  0.55591675
   0.48956550  0.53413977  0.51224621
   0.56863377  0.58604886  0.50914434
   0.28354287  0.39991258  0.57809773
   0.42801197  0.32840243  0.57893447
   0.42095476  0.37133249  0.47353992
   0.27717745  0.55678726  0.58752533
   0.44200701  0.60316711  0.62402687
   0.39896656  0.64257603  0.52595682
   0.56253787  0.41366974  0.52851296
   0.51766800  0.45670206  0.62542104
   0.46869393  0.52229185  0.44465418
   0.63201027  0.62726580  0.50846841
Direct configuration=     8
   0.34213322  0.43816640  0.56637789
   0.33870268  0.52480526  0.57266826
   0.41642116  0.58251740  0.56038601
   0.42365348  0.38988946  0.54283699
   0.50495798  0.44551017  0.55592419
   0.48964281  0.53419472  0.51228091
   0.56855944  0.58598252  0.50919058
   0.28351655  0.39991088  0.57793099
   0.42809521  0.32842146  0.57907163
   0.42084455  0.37114351  0.47356645
   0.27716649  0.55677802  0.58765957
   0.44189456  0.60329145  0.62410663
   0.39895531  0.64256884  0.52586649
   0.56259466  0.41362768  0.52853667
   0.51765609  0.45661295  0.62547505
   0.46877712  0.52235611  0.44465038
   0.63223607  0.62741256  0.50854909
Direct configuration=     9
   0.34211254  0.43815912  0.56625323
   0.33868976  0.52484524  0.57277811
   0.41643755  0.58258843  0.56042205
   0.42372972  0.38984375  0.54284752
   0.50498967  0.44542471  0.55595027
   0.48970108  0.53424501  0.51231598
   0.56881620  0.58612877  0.50925367
   0.28346235  0.39989937  0.57771257
   0.42820829  0.32844786  0.57926143
   0.42068446  0.37088795  0.47359754
   0.27713939  0.55677338  0.58784360
   0.44174167  0.60345930  0.62422400
   0.39893540  0.64256723  0.52573459
   0.56266766  0.41357103  0.52855805
   0.51763970  0.45649492  0.62555523
   0.46887984  0.52244172  0.44462701
   0.63223950  0.62741523  0.50865481
Direct configuration=    10
   0.34211264  0.43817924  0.56619952
   0.33869552  0.52483790  0.57282275
   0.41645115  0.58262198  0.56043681
   0.42377137  0.38982008  0.54284834
   0.50500007  0.44538120  0.55595384
   0.48974701  0.53428213  0.51234224
   0.56879101  0.58610671  0.50929569
   0.28342559  0.39989321  0.57758672
   0.42826040  0.32848213  0.57935959
   0.42060300  0.37074204  0.47362732
   0.27713304  0.55676756  0.58795298
   0.44165950  0.60355770  0.62426747
   0.39892175  0.64255468  0.52567046
   0.56269295  0.41354687  0.52856746
   0.51762780  0.45642453  0.62556984
   0.46893695  0.52249607  0.44463038
   0.63237058  0.62750071  0.50869865
Direct configuration=    11
   0.34210944  0.43818104  0.56612223
   0.33870160  0.52485014  0.57288821
   0.41646114  0.58266792  0.56046439
   0.42380668  0.38978499  0.54284539
   0.50502428  0.44533546  0.55595404
   0.48979496  0.53431375  0.51237943
   0.56893424  0.58619028  0.50935121
   0.28338342  0.39989020  0.57740578
   0.42833619  0.32852596  0.57950220
   0.42048787  0.37053463  0.47366942
   0.27712813  0.55675726  0.58810807
   0.44154328  0.60369778  0.62432894
   0.39890142  0.64253892  0.52557693
   0.56273252  0.41351002  0.52857826
   0.51761154  0.45632409  0.62559545
   0.46901664  0.52257300  0.44463276
   0.63240158  0.62752167  0.50876160
Direct configuration=    12
   0.34211128  0.43818000  0.56603721
   0.33871744  0.52486029  0.57295951
   0.41647137  0.58271703  0.56049621
   0.42383475  0.38974484  0.54283614
   0.50504996  0.44529074  0.55593519
   0.48986378  0.53435556  0.51243333
   0.56903011  0.58624549  0.50942641
   0.28333255  0.39989338  0.57716771
   0.42842189  0.32859779  0.57968067
   0.42034886  0.37026357  0.47373198
   0.27713903  0.55673675  0.58831396
   0.44140005  0.60388416  0.62438483
   0.39887058  0.64250796  0.52546401
   0.56277079  0.41346801  0.52858276
   0.51758917  0.45619052  0.62560150
   0.46911585  0.52267912  0.44464927
   0.63249540  0.62758445  0.50882335
Direct configuration=    13
   0.34211351  0.43818619  0.56599881
   0.33873069  0.52485382  0.57299188
   0.41647305  0.58273779  0.56051219
   0.42383103  0.38972504  0.54282798
   0.50506155  0.44528188  0.55590946
   0.48991244  0.53438293  0.51246569
   0.56897390  0.58620698  0.50946933
   0.28330947  0.39990047  0.57703226
   0.42846277  0.32864338  0.57977869
   0.42027797  0.37010966  0.47376835
   0.27715676  0.55672096  0.58843273
   0.44132625  0.60399220  0.62440236
   0.39884991  0.64248466  0.52540447
   0.56278714  0.41344602  0.52857534
   0.51757693  0.45611389  0.62559186
   0.46916835  0.52274297  0.44466495
   0.63262685  0.62767187  0.50884265
Direct configuration=    14
   0.34211442  0.43818803  0.56594837
   0.33874487  0.52485360  0.57303472
   0.41647412  0.58276468  0.56053243
   0.42383387  0.38970226  0.54281865
   0.50507411  0.44526127  0.55588243
   0.48994495  0.53440274  0.51250335
   0.56912635  0.58630326  0.50951696
   0.28327964  0.39990797  0.57686742
   0.42851456  0.32869709  0.57989956
   0.42018819  0.36992121  0.47381068
   0.27717603  0.55670230  0.58857775
   0.44123480  0.60412350  0.62442765
   0.39882491  0.64245728  0.52533002
   0.56280821  0.41341874  0.52856701
   0.51756202  0.45602082  0.62558292
   0.46923160  0.52281943  0.44468160
   0.63260117  0.62765780  0.50886982
Direct configuration=    15
   0.34211558  0.43818717  0.56592376
   0.33875836  0.52484997  0.57305657
   0.41647122  0.58277324  0.56054173
   0.42381914  0.38969228  0.54280820
   0.50507468  0.44525826  0.55584503
   0.48997563  0.53442499  0.51252990
   0.56910840  0.58629316  0.50954823
   0.28326405  0.39992005  0.57675361
   0.42853805  0.32874258  0.57997869
   0.42013482  0.36978948  0.47383992
   0.27720590  0.55668254  0.58868184
   0.44118199  0.60421793  0.62442558
   0.39880154  0.64242925  0.52528371
   0.56281245  0.41340361  0.52854465
   0.51755212  0.45595517  0.62555565
   0.46926835  0.52287779  0.44470067
   0.63266767  0.62770474  0.50886450
Direct configuration=    16
   0.34211724  0.43818854  0.56589186
   0.33877398  0.52484489  0.57308314
   0.41646958  0.58278574  0.56055379
   0.42381109  0.38967968  0.54279977
   0.50507713  0.44524892  0.55581323
   0.49000202  0.53444473  0.51256246
   0.56917075  0.58633362  0.50959077
   0.28324488  0.39993099  0.57662514
   0.42856589  0.32879210  0.58007094
   0.42007798  0.36964208  0.47387384
   0.27723558  0.55666209  0.58879502
   0.44112047  0.60432381  0.62442876
   0.39877730  0.64239859  0.52523062
   0.56282011  0.41338670  0.52852723
   0.51754054  0.45588259  0.62553424
   0.46931556  0.52294242  0.44472327
   0.63267951  0.62771539  0.50887325
Direct configuration=    17
   0.34212001  0.43818986  0.56585821
   0.33879622  0.52483669  0.57311069
   0.41646645  0.58279534  0.56056529
   0.42379667  0.38966827  0.54278872
   0.50507400  0.44523978  0.55576741
   0.49003012  0.53447071  0.51260118
   0.56921618  0.58636568  0.50964261
   0.28322419  0.39994727  0.57647627
   0.42858855  0.32885668  0.58017871
   0.42002058  0.36946831  0.47391442
   0.27728064  0.55663487  0.58892755
   0.44105780  0.60444947  0.62441972
   0.39874489  0.64235621  0.52517223
   0.56282010  0.41337071  0.52849349
   0.51752900  0.45579807  0.62549563
   0.46936650  0.52302251  0.44475342
   0.63269909  0.62773288  0.50887186
Direct configuration=    18
   0.34212198  0.43819018  0.56583125
   0.33881509  0.52483133  0.57313322
   0.41646549  0.58280170  0.56057174
   0.42378579  0.38965882  0.54277846
   0.50506758  0.44523121  0.55572468
   0.49005304  0.53449646  0.51262717
   0.56917448  0.58634336  0.50967921
   0.28320621  0.39996088  0.57636370
   0.42859998  0.32891052  0.58026448
   0.41997792  0.36933080  0.47394575
   0.27731885  0.55661393  0.58903187
   0.44101690  0.60454680  0.62440637
   0.39871554  0.64232118  0.52512764
   0.56281187  0.41336025  0.52845048
   0.51752404  0.45573293  0.62545539
   0.46939914  0.52308863  0.44477329
   0.63276882  0.62778422  0.50885686
Direct configuration=    19
   0.34212307  0.43819081  0.56580186
   0.33883497  0.52482470  0.57315762
   0.41646292  0.58280867  0.56057882
   0.42377426  0.38964895  0.54276680
   0.50506013  0.44522058  0.55567946
   0.49006062  0.53451293  0.51265215
   0.56925615  0.58640231  0.50971274
   0.28318671  0.39997464  0.57624894
   0.42861077  0.32896571  0.58035362
   0.41993319  0.36918831  0.47397751
   0.27735733  0.55659309  0.58913968
   0.44097643  0.60464634  0.62439221
   0.39868411  0.64228539  0.52508127
   0.56280171  0.41334954  0.52840168
   0.51752004  0.45566615  0.62541239
   0.46942973  0.52315674  0.44479199
   0.63273315  0.62776809  0.50883942
Direct configuration=    20
   0.34212344  0.43819179  0.56576318
   0.33885966  0.52481749  0.57319034
   0.41646105  0.58281749  0.56058590
   0.42376002  0.38963552  0.54275037
   0.50504892  0.44520706  0.55561773
   0.49007724  0.53454116  0.51267558
   0.56924055  0.58640257  0.50974608
   0.28316166  0.39999198  0.57611726
   0.42861807  0.32903364  0.58046209
   0.41988028  0.36901639  0.47401407
   0.27740430  0.55656996  0.58926916
   0.44093731  0.60476319  0.62437066
   0.39864225  0.64224253  0.52502600
   0.56278098  0.41333853  0.52832311
   0.51752107  0.45558777  0.62535084
   0.46945614  0.52324095  0.44480620
   0.63277125  0.62780409  0.50880263
Direct configuration=    21
   0.34212287  0.43819249  0.56572660
   0.33888195  0.52481090  0.57322182
   0.41645891  0.58282656  0.56059248
   0.42374603  0.38962183  0.54273480
   0.50503876  0.44519429  0.55555879
   0.49008744  0.53456383  0.51269550
   0.56925912  0.58642461  0.50977488
   0.28313764  0.40000807  0.57599364
   0.42862533  0.32909680  0.58056490
   0.41982914  0.36885372  0.47404796
   0.27744719  0.55654887  0.58939164
   0.44090067  0.60487304  0.62435161
   0.39860234  0.64220308  0.52497320
   0.56276165  0.41332751  0.52824701
   0.51752292  0.45551379  0.62529338
   0.46947997  0.52332035  0.44481839
   0.63278100  0.62782153  0.50876733
Direct configuration=    22
   0.34211945  0.43819354  0.56567769
   0.33890916  0.52480324  0.57326513
   0.41645577  0.58283915  0.56059952
   0.42372685  0.38960249  0.54271278
   0.50502403  0.44517715  0.55547750
   0.49009102  0.53458944  0.51270994
   0.56928502  0.58645717  0.50979774
   0.28310609  0.40002847  0.57584929
   0.42862847  0.32917477  0.58069344
   0.41976580  0.36865205  0.47408713
   0.27749891  0.55652592  0.58954249
   0.44086645  0.60500480  0.62432485
   0.39854819  0.64215595  0.52490794
   0.56272932  0.41331506  0.52812905
   0.51753286  0.45542474  0.62521266
   0.46949639  0.52342037  0.44482311
   0.63277554  0.62783531  0.50870704
Direct configuration=    23
   0.34211361  0.43819524  0.56562928
   0.33893290  0.52479703  0.57330960
   0.41645277  0.58285235  0.56060482
   0.42370624  0.38958160  0.54269018
   0.50500959  0.44516114  0.55539306
   0.49009488  0.53461627  0.51271329
   0.56924403  0.58644825  0.50980701
   0.28307500  0.40004818  0.57572085
   0.42862699  0.32924706  0.58081577
   0.41970540  0.36846139  0.47412134
   0.27754530  0.55650758  0.58968449
   0.44084390  0.60512504  0.62429812
   0.39849309  0.64211384  0.52484623
   0.56269231  0.41330388  0.52799636
   0.51755018  0.45534300  0.62512902
   0.46950004  0.52351569  0.44481694
   0.63281322  0.62787990  0.50863488
Direct configuration=    24
   0.34211056  0.43819575  0.56562569
   0.33893232  0.52479702  0.57331389
   0.41645117  0.58285366  0.56060434
   0.42370311  0.38957928  0.54268758
   0.50500762  0.44515943  0.55538438
   0.49008227  0.53461149  0.51270474
   0.56929666  0.58648545  0.50979460
   0.28307255  0.40004897  0.57572380
   0.42862258  0.32924797  0.58082023
   0.41970306  0.36845517  0.47411993
   0.27754448  0.55650965  0.58968817
   0.44085157  0.60512483  0.62429546
   0.39848768  0.64211421  0.52484441
   0.56268531  0.41330399  0.52797380
   0.51755733  0.45534249  0.62511956
   0.46948931  0.52351891  0.44480819
   0.63275943  0.62784860  0.50862122
Direct configuration=    25
   0.34210761  0.43819639  0.56561406
   0.33893656  0.52479592  0.57332515
   0.41645033  0.58285682  0.56060525
   0.42369664  0.38957386  0.54268136
   0.50500312  0.44515636  0.55536189
   0.49008255  0.53461931  0.51270029
   0.56925978  0.58646637  0.50978966
   0.28306497  0.40005333  0.57570122
   0.42861927  0.32926229  0.58084668
   0.41968996  0.36841427  0.47412538
   0.27755290  0.55650728  0.58971768
   0.44085231  0.60514775  0.62428843
   0.39847335  0.64210635  0.52483134
   0.56267343  0.41330192  0.52793299
   0.51756559  0.45532619  0.62509643
   0.46948270  0.52353944  0.44480074
   0.63278637  0.62787217  0.50859740
Direct configuration=    26
   0.34210318  0.43819723  0.56560074
   0.33894088  0.52479475  0.57333843
   0.41644871  0.58286048  0.56060590
   0.42368880  0.38956760  0.54267411
   0.50499776  0.44515242  0.55533483
   0.49007369  0.53462300  0.51269258
   0.56927356  0.58648119  0.50977993
   0.28305609  0.40005825  0.57567782
   0.42861434  0.32927799  0.58087632
   0.41967549  0.36836844  0.47413080
   0.27756177  0.55650529  0.58975047
   0.44085550  0.60517245  0.62428027
   0.39845636  0.64209791  0.52481697
   0.56265866  0.41329985  0.52788266
   0.51757685  0.45530852  0.62506886
   0.46947262  0.52356242  0.44479103
   0.63276712  0.62786722  0.50856858
Direct configuration=    27
   0.34204243  0.43821111  0.56540050
   0.33900702  0.52478058  0.57353501
   0.41642161  0.58291731  0.56061633
   0.42357672  0.38947737  0.54256862
   0.50492505  0.44508870  0.55493542
   0.48998175  0.53469653  0.51258920
   0.56926223  0.58656309  0.50965043
   0.28292452  0.40013468  0.57530854
   0.42854531  0.32952230  0.58132397
   0.41945768  0.36767046  0.47421880
   0.27770150  0.55647149  0.59025157
   0.44089186  0.60555559  0.62415607
   0.39820457  0.64196379  0.52460037
   0.56243966  0.41327068  0.52714467
   0.51774260  0.45503632  0.62465700
   0.46933478  0.52391109  0.44465188
   0.63265805  0.62790894  0.50814833
Direct configuration=    28
   0.34204833  0.43821185  0.56542118
   0.33899963  0.52478208  0.57351598
   0.41642518  0.58291162  0.56061405
   0.42358477  0.38948408  0.54257910
   0.50493045  0.44509670  0.55496793
   0.49000369  0.53470018  0.51259588
   0.56914706  0.58647952  0.50966311
   0.28293581  0.40012837  0.57534016
   0.42854924  0.32950255  0.58128284
   0.41947866  0.36773062  0.47421342
   0.27768859  0.55647386  0.59020816
   0.44088819  0.60552289  0.62416499
   0.39822571  0.64197419  0.52462078
   0.56246015  0.41327288  0.52720786
   0.51773173  0.45505925  0.62469091
   0.46934714  0.52388029  0.44466567
   0.63276834  0.62797038  0.50818723
Direct configuration=    29
   0.34204257  0.43821359  0.56540366
   0.33900574  0.52478092  0.57353384
   0.41642173  0.58291695  0.56061527
   0.42357339  0.38947588  0.54256949
   0.50492304  0.44509015  0.55492929
   0.48998763  0.53470313  0.51258544
   0.56920785  0.58652702  0.50964891
   0.28292324  0.40013588  0.57530445
   0.42854185  0.32952633  0.58132515
   0.41945914  0.36766334  0.47422299
   0.27770160  0.55647039  0.59025631
   0.44089142  0.60556015  0.62415226
   0.39820128  0.64196075  0.52460072
   0.56243982  0.41327021  0.52713740
   0.51774944  0.45503283  0.62465051
   0.46933399  0.52391307  0.44465314
   0.63270470  0.62793933  0.50815084
Direct configuration=    30
   0.34203893  0.43821508  0.56539382
   0.33900857  0.52478124  0.57354448
   0.41641943  0.58291979  0.56061549
   0.42356531  0.38947123  0.54256396
   0.50491888  0.44508614  0.55490304
   0.48998426  0.53470975  0.51257783
   0.56919917  0.58652694  0.50963892
   0.28291503  0.40014133  0.57528046
   0.42853540  0.32954265  0.58135201
   0.41944771  0.36761841  0.47423093
   0.27770952  0.55646764  0.59028833
   0.44089323  0.60558519  0.62414265
   0.39818456  0.64195107  0.52458850
   0.56242654  0.41326877  0.52709048
   0.51776407  0.45501493  0.62462210
   0.46932521  0.52393383  0.44464513
   0.63270342  0.62794498  0.50812914
Direct configuration=    31
   0.34202905  0.43821911  0.56537001
   0.33901521  0.52478033  0.57357024
   0.41641478  0.58292625  0.56061465
   0.42354629  0.38945957  0.54255067
   0.50490843  0.44507787  0.55483916
   0.48997128  0.53472211  0.51255963
   0.56919374  0.58653576  0.50961594
   0.28289442  0.40015400  0.57522293
   0.42851938  0.32958112  0.58141659
   0.41941969  0.36751021  0.47424989
   0.27772740  0.55646125  0.59036500
   0.44089720  0.60564537  0.62411982
   0.39814359  0.64192846  0.52455872
   0.56239495  0.41326469  0.52697719
   0.51779981  0.45497172  0.62455474
   0.46930413  0.52398374  0.44462717
   0.63269471  0.62795517  0.50807868
Direct configuration=    32
   0.34199421  0.43823287  0.56528312
   0.33903960  0.52477766  0.57366350
   0.41639744  0.58295048  0.56061205
   0.42347922  0.38941843  0.54250299
   0.50487193  0.44504681  0.55461066
   0.48992806  0.53476791  0.51249512
   0.56915790  0.58655731  0.50953433
   0.28282047  0.40019956  0.57501688
   0.42846239  0.32971912  0.58164908
   0.41931867  0.36712254  0.47431763
   0.27779184  0.55643863  0.59063987
   0.44091108  0.60586114  0.62403779
   0.39799672  0.64184787  0.52445125
   0.56228176  0.41324998  0.52657074
   0.51792779  0.45481711  0.62431286
   0.46922838  0.52416272  0.44456058
   0.63267439  0.62799853  0.50789882
Direct configuration=    33
   0.34199095  0.43823371  0.56527232
   0.33904246  0.52477761  0.57367395
   0.41639463  0.58295417  0.56061231
   0.42347376  0.38941515  0.54249835
   0.50486979  0.44504204  0.55458844
   0.48992066  0.53477004  0.51248974
   0.56919234  0.58658421  0.50952700
   0.28281225  0.40020438  0.57499555
   0.42845613  0.32973354  0.58167408
   0.41930793  0.36708285  0.47432550
   0.27779821  0.55643657  0.59066777
   0.44091129  0.60588350  0.62402821
   0.39798092  0.64184034  0.52443890
   0.56227058  0.41324815  0.52652775
   0.51794297  0.45480151  0.62428741
   0.46922011  0.52418034  0.44455109
   0.63263883  0.62797979  0.50788777
Direct configuration=    34
   0.34199049  0.43823408  0.56527030
   0.33904295  0.52477753  0.57367594
   0.41639441  0.58295482  0.56061247
   0.42347320  0.38941457  0.54249799
   0.50486984  0.44504167  0.55458547
   0.48992291  0.53477245  0.51248911
   0.56916995  0.58657027  0.50952734
   0.28281103  0.40020509  0.57499236
   0.42845522  0.32973571  0.58167827
   0.41930653  0.36707696  0.47432693
   0.27779923  0.55643621  0.59067190
   0.44091111  0.60588705  0.62402691
   0.39797844  0.64183941  0.52443678
   0.56226903  0.41324785  0.52652140
   0.51794590  0.45479910  0.62428352
   0.46921926  0.52418280  0.44454936
   0.63265722  0.62799222  0.50788648
Direct configuration=    35
   0.34198797  0.43823533  0.56526268
   0.33904513  0.52477707  0.57368373
   0.41639321  0.58295706  0.56061258
   0.42346924  0.38941169  0.54249540
   0.50486822  0.44503969  0.55457019
   0.48992037  0.53477604  0.51248498
   0.56916445  0.58656941  0.50952419
   0.28280538  0.40020837  0.57497731
   0.42845105  0.32974573  0.58169653
   0.41929959  0.36704904  0.47433270
   0.27780382  0.55643461  0.59069152
   0.44091126  0.60590326  0.62402103
   0.39796725  0.64183430  0.52442787
   0.56226156  0.41324652  0.52649181
   0.51795739  0.45478794  0.62426608
   0.46921465  0.52419514  0.44454369
   0.63265842  0.62799607  0.50787800
Direct configuration=    36
   0.34196871  0.43824325  0.56520311
   0.33906161  0.52477592  0.57374516
   0.41637788  0.58297679  0.56061335
   0.42343875  0.38938970  0.54247495
   0.50485614  0.44501699  0.55444614
   0.48989320  0.53479772  0.51245485
   0.56918078  0.58660375  0.50949715
   0.28276266  0.40023503  0.57485880
   0.42841811  0.32982582  0.58183955
   0.41924519  0.36682934  0.47437848
   0.27784088  0.55642161  0.59084572
   0.44091253  0.60603141  0.62397429
   0.39787990  0.64179142  0.52435926
   0.56219952  0.41323775  0.52625919
   0.51804862  0.45469983  0.62412907
   0.46917616  0.52429181  0.44449710
   0.63262075  0.62799511  0.50781436
Direct configuration=    37
   0.34195611  0.43824910  0.56516388
   0.33907218  0.52477470  0.57378568
   0.41636874  0.58298930  0.56061312
   0.42341809  0.38937435  0.54246129
   0.50484776  0.44500324  0.55436326
   0.48987816  0.53481436  0.51243317
   0.56916249  0.58660764  0.50948040
   0.28273425  0.40025296  0.57477928
   0.42839598  0.32987973  0.58193539
   0.41920899  0.36668244  0.47440956
   0.27786541  0.55641296  0.59094890
   0.44091318  0.60611750  0.62394316
   0.39782128  0.64176272  0.52431318
   0.56215889  0.41323137  0.52610303
   0.51811028  0.45464093  0.62403798
   0.46915131  0.52435678  0.44446769
   0.63262036  0.62801048  0.50777269
Direct configuration=    38
   0.34196478  0.43824577  0.56519149
   0.33906404  0.52477497  0.57375738
   0.41637614  0.58297968  0.56061192
   0.42343135  0.38938342  0.54247053
   0.50485326  0.44501417  0.55441872
   0.48989114  0.53480485  0.51244511
   0.56914952  0.58658885  0.50949308
   0.28275385  0.40024111  0.57483235
   0.42841064  0.32984405  0.58187119
   0.41923378  0.36678139  0.47438954
   0.27784833  0.55641884  0.59087964
   0.44091229  0.60606020  0.62396444
   0.39786043  0.64178168  0.52434417
   0.56218734  0.41323495  0.52620742
   0.51806988  0.45468064  0.62410043
   0.46916970  0.52431338  0.44449093
   0.63264263  0.62801446  0.50780304
Direct configuration=    39
   0.34195511  0.43825048  0.56516156
   0.33907226  0.52477389  0.57378860
   0.41636936  0.58298906  0.56061162
   0.42341451  0.38937101  0.54245997
   0.50484613  0.44500398  0.55435364
   0.48987842  0.53481780  0.51242782
   0.56914445  0.58659775  0.50948063
   0.28273193  0.40025523  0.57476973
   0.42839337  0.32988644  0.58194690
   0.41920584  0.36666592  0.47441431
   0.27786745  0.55641194  0.59096074
   0.44091262  0.60612810  0.62393999
   0.39781439  0.64175877  0.52430803
   0.56215586  0.41322976  0.52608485
   0.51811874  0.45463435  0.62402918
   0.46915100  0.52436437  0.44446915
   0.63263487  0.62802149  0.50777209
Direct configuration=    40
   0.34194280  0.43825544  0.56512499
   0.33908087  0.52477350  0.57382568
   0.41636074  0.58299989  0.56060958
   0.42339437  0.38935650  0.54244675
   0.50483887  0.44499088  0.55427336
   0.48986364  0.53483286  0.51240539
   0.56913767  0.58660931  0.50946480
   0.28270512  0.40027322  0.57469148
   0.42837150  0.32993988  0.58204055
   0.41917100  0.36652294  0.47444535
   0.27789037  0.55640364  0.59106105
   0.44091252  0.60621258  0.62390906
   0.39775698  0.64172966  0.52426312
   0.56211681  0.41322313  0.52593140
   0.51818044  0.45457747  0.62394073
   0.46912824  0.52442777  0.44444317
   0.63262431  0.62802907  0.50773853
Direct configuration=    41
   0.34194989  0.43825281  0.56514605
   0.33907579  0.52477369  0.57380418
   0.41636585  0.58299343  0.56061021
   0.42340537  0.38936457  0.54245432
   0.50484300  0.44499853  0.55431796
   0.48987193  0.53482451  0.51241774
   0.56914319  0.58660406  0.50947429
   0.28272029  0.40026333  0.57473459
   0.42838360  0.32991056  0.58198894
   0.41919066  0.36660222  0.47442855
   0.27787733  0.55640828  0.59100536
   0.44091225  0.60616602  0.62392590
   0.39778875  0.64174537  0.52428793
   0.56213883  0.41322663  0.52601616
   0.51814698  0.45460917  0.62399004
   0.46914160  0.52439261  0.44445856
   0.63262842  0.62802341  0.50775997
Direct configuration=    42
   0.34194429  0.43825591  0.56512857
   0.33908040  0.52477301  0.57382217
   0.41636192  0.58299882  0.56060936
   0.42339499  0.38935698  0.54244825
   0.50483910  0.44499238  0.55427770
   0.48986485  0.53483271  0.51240713
   0.56913611  0.58660726  0.50946739
   0.28270715  0.40027215  0.57469570
   0.42837288  0.32993726  0.58203595
   0.41917384  0.36653113  0.47444441
   0.27788869  0.55640409  0.59105520
   0.44091196  0.60620815  0.62391031
   0.39776033  0.64173064  0.52426556
   0.56211983  0.41322324  0.52594018
   0.51817809  0.45458095  0.62394650
   0.46913098  0.52442404  0.44444611
   0.63262666  0.62802922  0.50774476
Direct configuration=    43
   0.34193068  0.43826093  0.56508922
   0.33908867  0.52477323  0.57386050
   0.41635185  0.58300951  0.56060607
   0.42337483  0.38934264  0.54243470
   0.50483450  0.44497794  0.55419384
   0.48984985  0.53484603  0.51238549
   0.56913668  0.58662473  0.50945164
   0.28267862  0.40029130  0.57461159
   0.42834916  0.32999428  0.58213581
   0.41913675  0.36637889  0.47447771
   0.27791235  0.55639548  0.59116152
   0.44091104  0.60629836  0.62387673
   0.39769887  0.64169907  0.52421715
   0.56207605  0.41321731  0.52577671
   0.51824569  0.45452075  0.62385264
   0.46910742  0.52449068  0.44441849
   0.63260974  0.62803413  0.50771382
Direct configuration=    44
   0.34193493  0.43826052  0.56510019
   0.33908663  0.52477256  0.57384980
   0.41635499  0.58300662  0.56060700
   0.42337982  0.38934596  0.54243891
   0.50483511  0.44498223  0.55421534
   0.48985506  0.53484409  0.51239138
   0.56912484  0.58661251  0.50945745
   0.28268628  0.40028618  0.57463322
   0.42835545  0.32997990  0.58211053
   0.41914708  0.36641842  0.47446991
   0.27790602  0.55639769  0.59113381
   0.44091072  0.60627526  0.62388490
   0.39771491  0.64170673  0.52422946
   0.56208832  0.41321850  0.52581900
   0.51822925  0.45453646  0.62387762
   0.46911476  0.52447328  0.44442666
   0.63262423  0.62803909  0.50772502
Direct configuration=    45
   0.34193159  0.43826245  0.56508959
   0.33908924  0.52477220  0.57386037