  18  18   0   0
  0.1875000E+03  0.1500000E-08  0.1500000E-08  0.1500000E-08  0.5000000E-15
  1.000000000000000E-004
  CAR 
 unknown system                          
      2.29398294    -24.22833037  301     -5.74006780      1.00000000
    -24.228  0.0000E+00  0.0000E+00
    -24.140  0.0000E+00  0.0000E+00
    -24.052  0.0000E+00  0.0000E+00
    -23.963  0.0000E+00  0.0000E+00
    -23.875  0.0000E+00  0.0000E+00
    -23.786  0.0000E+00  0.0000E+00
    -23.698  0.0000E+00  0.0000E+00
    -23.609  0.0000E+00  0.0000E+00
    -23.521  0.0000E+00  0.0000E+00
    -23.433  0.0000E+00  0.0000E+00
    -23.344  0.0000E+00  0.0000E+00
    -23.256  0.4897E-09  0.4329E-10
    -23.167  0.4842E-03  0.4280E-04
    -23.079  0.1261E+01  0.1116E+00
    -22.991  0.1726E+02  0.1638E+01
    -22.902  0.8922E+01  0.2427E+01
    -22.814  0.1680E+02  0.3912E+01
    -22.725  0.9941E+00  0.4000E+01
    -22.637  0.2926E-03  0.4000E+01
    -22.549  0.2238E-09  0.4000E+01
    -22.460  0.0000E+00  0.4000E+01
    -22.372  0.0000E+00  0.4000E+01
    -22.283  0.0000E+00  0.4000E+01
    -22.195  0.0000E+00  0.4000E+01
    -22.107  0.0000E+00  0.4000E+01
    -22.018  0.0000E+00  0.4000E+01
    -21.930  0.0000E+00  0.4000E+01
    -21.841  0.0000E+00  0.4000E+01
    -21.753  0.0000E+00  0.4000E+01
    -21.665  0.0000E+00  0.4000E+01
    -21.576  0.0000E+00  0.4000E+01
    -21.488  0.0000E+00  0.4000E+01
    -21.399  0.0000E+00  0.4000E+01
    -21.311  0.2386E-13  0.4000E+01
    -21.222  0.6221E-06  0.4000E+01
    -21.134  0.3787E-01  0.4003E+01
    -21.046  0.7482E+01  0.4665E+01
    -20.957  0.1466E+02  0.5961E+01
    -20.869  0.4378E+00  0.6000E+01
    -20.780  0.5574E-04  0.6000E+01
    -20.692  0.1773E-10  0.6000E+01
    -20.604  0.0000E+00  0.6000E+01
    -20.515  0.0000E+00  0.6000E+01
    -20.427  0.0000E+00  0.6000E+01
    -20.338  0.4105E-11  0.6000E+01
    -20.250  0.2103E-04  0.6000E+01
    -20.162  0.2641E+00  0.6023E+01
    -20.073  0.1313E+02  0.7184E+01
    -19.985  0.9157E+01  0.7994E+01
    -19.896  0.7088E-01  0.8000E+01
    -19.808  0.1876E-05  0.8000E+01
    -19.720  0.1155E-12  0.8000E+01
    -19.631  0.0000E+00  0.8000E+01
    -19.543  0.0000E+00  0.8000E+01
    -19.454  0.0000E+00  0.8000E+01
    -19.366  0.0000E+00  0.8000E+01
    -19.277  0.0000E+00  0.8000E+01
    -19.189  0.0000E+00  0.8000E+01
    -19.101  0.0000E+00  0.8000E+01
    -19.012  0.0000E+00  0.8000E+01
    -18.924  0.0000E+00  0.8000E+01
    -18.835  0.0000E+00  0.8000E+01
    -18.747  0.0000E+00  0.8000E+01
    -18.659  0.0000E+00  0.8000E+01
    -18.570  0.0000E+00  0.8000E+01
    -18.482  0.0000E+00  0.8000E+01
    -18.393  0.5839E-12  0.8000E+01
    -18.305  0.5632E-05  0.8000E+01
    -18.217  0.1303E+00  0.8012E+01
    -18.128  0.1095E+02  0.8979E+01
    -18.040  0.1140E+02  0.9987E+01
    -17.951  0.1509E+00  0.1000E+02
    -17.863  0.6556E-02  0.1000E+02
    -17.775  0.3917E+01  0.1035E+02
    -17.686  0.1736E+02  0.1188E+02
    -17.598  0.1343E+01  0.1200E+02
    -17.509  0.5542E-03  0.1200E+02
    -17.421  0.6049E-09  0.1200E+02
    -17.333  0.0000E+00  0.1200E+02
    -17.244  0.0000E+00  0.1200E+02
    -17.156  0.0000E+00  0.1200E+02
    -17.067  0.0000E+00  0.1200E+02
    -16.979  0.0000E+00  0.1200E+02
    -16.890  0.0000E+00  0.1200E+02
    -16.802  0.0000E+00  0.1200E+02
    -16.714  0.0000E+00  0.1200E+02
    -16.625  0.0000E+00  0.1200E+02
    -16.537  0.0000E+00  0.1200E+02
    -16.448  0.0000E+00  0.1200E+02
    -16.360  0.0000E+00  0.1200E+02
    -16.272  0.0000E+00  0.1200E+02
    -16.183  0.0000E+00  0.1200E+02
    -16.095  0.0000E+00  0.1200E+02
    -16.006  0.0000E+00  0.1200E+02
    -15.918  0.0000E+00  0.1200E+02
    -15.830  0.0000E+00  0.1200E+02
    -15.741  0.0000E+00  0.1200E+02
    -15.653  0.6992E-08  0.1200E+02
    -15.564  0.2585E-02  0.1200E+02
    -15.476  0.2669E+01  0.1224E+02
    -15.388  0.1782E+02  0.1381E+02
    -15.299  0.2127E+01  0.1400E+02
    -15.211  0.1531E-02  0.1400E+02
    -15.122  0.3016E-08  0.1400E+02
    -15.034  0.0000E+00  0.1400E+02
    -14.946  0.0000E+00  0.1400E+02
    -14.857  0.0000E+00  0.1400E+02
    -14.769  0.0000E+00  0.1400E+02
    -14.680  0.0000E+00  0.1400E+02
    -14.592  0.0000E+00  0.1400E+02
    -14.503  0.0000E+00  0.1400E+02
    -14.415  0.0000E+00  0.1400E+02
    -14.327  0.0000E+00  0.1400E+02
    -14.238  0.1501E-11  0.1400E+02
    -14.150  0.1068E-04  0.1400E+02
    -14.061  0.1843E+00  0.1402E+02
    -13.973  0.1201E+02  0.1508E+02
    -13.885  0.1032E+02  0.1599E+02
    -13.796  0.1058E+00  0.1600E+02
    -13.708  0.3866E-05  0.1600E+02
    -13.619  0.3214E-02  0.1600E+02
    -13.531  0.2926E+01  0.1626E+02
    -13.443  0.1777E+02  0.1783E+02
    -13.354  0.1923E+01  0.1800E+02
    -13.266  0.1219E-02  0.1800E+02
    -13.177  0.7946E-03  0.1800E+02
    -13.089  0.1586E+01  0.1814E+02
    -13.001  0.1759E+02  0.1969E+02
    -12.912  0.3446E+01  0.2000E+02
    -12.824  0.4768E-02  0.2000E+02
    -12.735  0.1892E-07  0.2000E+02
    -12.647  0.0000E+00  0.2000E+02
    -12.559  0.0000E+00  0.2000E+02
    -12.470  0.0000E+00  0.2000E+02
    -12.382  0.6476E-08  0.2000E+02
    -12.293  0.2465E-02  0.2000E+02
    -12.205  0.2615E+01  0.2023E+02
    -12.116  0.1783E+02  0.2181E+02
    -12.028  0.2173E+01  0.2200E+02
    -11.940  0.1608E-02  0.2200E+02
    -11.851  0.3261E-08  0.2200E+02
    -11.763  0.0000E+00  0.2200E+02
    -11.674  0.0000E+00  0.2200E+02
    -11.586  0.0000E+00  0.2200E+02
    -11.498  0.3403E-12  0.2200E+02
    -11.409  0.3899E-05  0.2200E+02
    -11.321  0.1065E+00  0.2201E+02
    -11.232  0.1034E+02  0.2292E+02
    -11.144  0.1199E+02  0.2398E+02
    -11.056  0.1832E+00  0.2400E+02
    -10.967  0.4363E-02  0.2400E+02
    -10.879  0.3319E+01  0.2429E+02
    -10.790  0.1764E+02  0.2585E+02
    -10.702  0.1660E+01  0.2600E+02
    -10.614  0.8791E-03  0.2600E+02
    -10.525  0.4088E-06  0.2600E+02
    -10.437  0.2967E-01  0.2600E+02
    -10.348  0.6885E+01  0.2661E+02
    -10.260  0.1518E+02  0.2795E+02
    -10.172  0.2504E+01  0.2818E+02
    -10.083  0.1779E+02  0.2975E+02
     -9.995  0.2852E+01  0.3000E+02
     -9.906  0.3023E-02  0.3000E+02
     -9.818  0.9005E-08  0.3000E+02
     -9.729  0.0000E+00  0.3000E+02
     -9.641  0.0000E+00  0.3000E+02
     -9.553  0.0000E+00  0.3000E+02
     -9.464  0.5764E-12  0.3000E+02
     -9.376  0.5579E-05  0.3000E+02
     -9.287  0.1296E+00  0.3001E+02
     -9.199  0.1093E+02  0.3098E+02
     -9.111  0.1141E+02  0.3199E+02
     -9.022  0.7415E+00  0.3205E+02
     -8.934  0.1551E+02  0.3342E+02
     -8.845  0.9141E+01  0.3423E+02
     -8.757  0.3291E+02  0.3714E+02
     -8.669  0.1289E+02  0.3828E+02
     -8.580  0.1902E+02  0.3996E+02
     -8.492  0.2168E+02  0.4188E+02
     -8.403  0.2184E+02  0.4381E+02
     -8.315  0.2156E+01  0.4400E+02
     -8.227  0.1747E-02  0.4400E+02
     -8.138  0.7864E+00  0.4407E+02
     -8.050  0.1626E+02  0.4551E+02
     -7.961  0.5559E+01  0.4600E+02
     -7.873  0.1631E-01  0.4600E+02
     -7.784  0.1465E-06  0.4600E+02
     -7.696  0.2512E-14  0.4600E+02
     -7.608  0.0000E+00  0.4600E+02
     -7.519  0.0000E+00  0.4600E+02
     -7.431  0.1715E-07  0.4600E+02
     -7.342  0.4490E-02  0.4600E+02
     -7.254  0.3362E+01  0.4630E+02
     -7.166  0.1762E+02  0.4786E+02
     -7.077  0.1634E+01  0.4800E+02
     -6.989  0.8494E-03  0.4800E+02
     -6.900  0.1184E-08  0.4800E+02
     -6.812  0.0000E+00  0.4800E+02
     -6.724  0.0000E+00  0.4800E+02
     -6.635  0.0000E+00  0.4800E+02
     -6.547  0.0000E+00  0.4800E+02
     -6.458  0.0000E+00  0.4800E+02
     -6.370  0.0000E+00  0.4800E+02
     -6.282  0.1256E-14  0.4800E+02
     -6.193  0.9046E-07  0.4800E+02
     -6.105  0.1225E-01  0.4800E+02
     -6.016  0.4997E+01  0.4844E+02
     -5.928  0.1667E+02  0.4992E+02
     -5.840  0.9394E+00  0.5000E+02
     -5.751  0.2601E-03  0.5000E+02
     -5.663  0.1864E-09  0.5000E+02
     -5.574  0.0000E+00  0.5000E+02
     -5.486  0.0000E+00  0.5000E+02
     -5.397  0.0000E+00  0.5000E+02
     -5.309  0.0000E+00  0.5000E+02
     -5.221  0.0000E+00  0.5000E+02
     -5.132  0.0000E+00  0.5000E+02
     -5.044  0.0000E+00  0.5000E+02
     -4.955  0.0000E+00  0.5000E+02
     -4.867  0.0000E+00  0.5000E+02
     -4.779  0.0000E+00  0.5000E+02
     -4.690  0.0000E+00  0.5000E+02
     -4.602  0.0000E+00  0.5000E+02
     -4.513  0.0000E+00  0.5000E+02
     -4.425  0.0000E+00  0.5000E+02
     -4.337  0.0000E+00  0.5000E+02
     -4.248  0.0000E+00  0.5000E+02
     -4.160  0.0000E+00  0.5000E+02
     -4.071  0.0000E+00  0.5000E+02
     -3.983  0.0000E+00  0.5000E+02
     -3.895  0.0000E+00  0.5000E+02
     -3.806  0.4445E-09  0.5000E+02
     -3.718  0.4550E-03  0.5000E+02
     -3.629  0.1225E+01  0.5011E+02
     -3.541  0.1720E+02  0.5163E+02
     -3.453  0.4187E+01  0.5200E+02
     -3.364  0.7749E-02  0.5200E+02
     -3.276  0.4212E-07  0.5200E+02
     -3.187  0.0000E+00  0.5200E+02
     -3.099  0.0000E+00  0.5200E+02
     -3.010  0.0000E+00  0.5200E+02
     -2.922  0.0000E+00  0.5200E+02
     -2.834  0.0000E+00  0.5200E+02
     -2.745  0.0000E+00  0.5200E+02
     -2.657  0.0000E+00  0.5200E+02
     -2.568  0.1723E-09  0.5200E+02
     -2.480  0.2471E-03  0.5200E+02
     -2.392  0.9166E+00  0.5208E+02
     -2.303  0.1662E+02  0.5355E+02
     -2.215  0.5074E+01  0.5400E+02
     -2.126  0.1276E-01  0.5400E+02
     -2.038  0.9682E-07  0.5400E+02
     -1.950  0.0000E+00  0.5400E+02
     -1.861  0.0000E+00  0.5400E+02
     -1.773  0.0000E+00  0.5400E+02
     -1.684  0.0000E+00  0.5400E+02
     -1.596  0.0000E+00  0.5400E+02
     -1.508  0.0000E+00  0.5400E+02
     -1.419  0.0000E+00  0.5400E+02
     -1.331  0.5337E-12  0.5400E+02
     -1.242  0.5295E-05  0.5400E+02
     -1.154  0.1260E+00  0.5401E+02
     -1.066  0.1084E+02  0.5497E+02
     -0.977  0.1150E+02  0.5599E+02
     -0.889  0.3265E+01  0.5628E+02
     -0.800  0.1771E+02  0.5784E+02
     -0.712  0.1795E+01  0.5800E+02
     -0.623  0.1045E-02  0.5800E+02
     -0.535  0.4265E-06  0.5800E+02
     -0.447  0.3040E-01  0.5800E+02
     -0.358  0.6943E+01  0.5862E+02
     -0.270  0.1513E+02  0.5995E+02
     -0.181  0.1131E+01  0.6005E+02
     -0.093  0.1563E+02  0.6144E+02
     -0.005  0.6397E+01  0.6200E+02
      0.084  0.7987E+01  0.6271E+02
      0.172  0.1496E+02  0.6403E+02
      0.261  0.1646E+02  0.6549E+02
      0.349  0.1101E+02  0.6646E+02
      0.437  0.1973E+02  0.6820E+02
      0.526  0.2904E+02  0.7077E+02
      0.614  0.3482E+02  0.7385E+02
      0.703  0.2305E+02  0.7589E+02
      0.791  0.1934E+02  0.7760E+02
      0.879  0.4534E+01  0.7800E+02
      0.968  0.1685E-01  0.7800E+02
      1.056  0.4101E+01  0.7836E+02
      1.145  0.1725E+02  0.7989E+02
      1.233  0.1261E+01  0.8000E+02
      1.321  0.4842E-03  0.8000E+02
      1.410  0.4897E-09  0.8000E+02
      1.498  0.0000E+00  0.8000E+02
      1.587  0.0000E+00  0.8000E+02
      1.675  0.0000E+00  0.8000E+02
      1.764  0.0000E+00  0.8000E+02
      1.852  0.0000E+00  0.8000E+02
      1.940  0.0000E+00  0.8000E+02
      2.029  0.0000E+00  0.8000E+02
      2.117  0.0000E+00  0.8000E+02
      2.206  0.0000E+00  0.8000E+02
      2.294  0.0000E+00  0.8000E+02
