<?xml version="1.0" encoding="ISO-8859-1"?>
<modeling>
 <generator>
  <i name="program" type="string">vasp </i>
  <i name="version" type="string">6.3.2  </i>
  <i name="subversion" type="string">27Jun22 (build Oct 05 2023 17:59:42) gamma-only                       parallel </i>
  <i name="platform" type="string">LinuxIFC </i>
  <i name="date" type="string">2024 04 09 </i>
  <i name="time" type="string">13:57:22 </i>
 </generator>
 <incar>
  <i type="string" name="ALGO">Fast</i>
  <i type="int" name="ISPIN">     1</i>
  <i name="ENCUT">    400.00000000</i>
  <i type="int" name="ISMEAR">     0</i>
  <i name="SIGMA">      0.05000000</i>
  <i type="logical" name="LWAVE"> F  </i>
  <i type="logical" name="LCHARG"> F  </i>
  <i type="string" name="GGA">PE</i>
  <i type="int" name="IVDW">    11</i>
 </incar>
 <primitive_cell>
  <structure name="primitive_cell" >
   <crystal>
    <varray name="basis" >
     <v>      15.00000000       0.00000000       0.00000000 </v>
     <v>       0.00000000      15.00000000       0.00000000 </v>
     <v>       0.00000000       0.00000000      15.00000000 </v>
    </varray>
    <i name="volume">   3375.00000000 </i>
    <varray name="rec_basis" >
     <v>       0.06666667       0.00000000       0.00000000 </v>
     <v>       0.00000000       0.06666667       0.00000000 </v>
     <v>       0.00000000       0.00000000       0.06666667 </v>
    </varray>
   </crystal>
   <varray name="positions" >
    <v>       0.38184175       0.52988762       0.62282208 </v>
    <v>       0.39423768       0.43314820       0.62264301 </v>
    <v>       0.46914597       0.38867468       0.64411820 </v>
    <v>       0.44641157       0.59207936       0.62667045 </v>
    <v>       0.51914242       0.52525083       0.42703504 </v>
    <v>       0.51380732       0.43520777       0.43066198 </v>
    <v>       0.59722389       0.57195922       0.45265977 </v>
    <v>       0.43602980       0.38817900       0.40467437 </v>
    <v>       0.33592667       0.39421205       0.60258434 </v>
    <v>       0.52932827       0.42266911       0.66693511 </v>
    <v>       0.47163826       0.31613091       0.64089816 </v>
    <v>       0.31270829       0.55248885       0.61743521 </v>
    <v>       0.51699483       0.57491339       0.63072182 </v>
    <v>       0.43030861       0.66291373       0.62657007 </v>
    <v>       0.46270390       0.56528725       0.40460166 </v>
    <v>       0.57001676       0.39531062       0.45392756 </v>
    <v>       0.66093520       0.61162705       0.47378453 </v>
    <v>       0.37273729       0.34805693       0.38322387 </v>
   </varray>
  </structure>
  <varray name="primitive_index" >
   <v type="int" >        1 </v>
   <v type="int" >        2 </v>
   <v type="int" >        3 </v>
   <v type="int" >        4 </v>
   <v type="int" >        5 </v>
   <v type="int" >        6 </v>
   <v type="int" >        7 </v>
   <v type="int" >        8 </v>
   <v type="int" >        9 </v>
   <v type="int" >       10 </v>
   <v type="int" >       11 </v>
   <v type="int" >       12 </v>
   <v type="int" >       13 </v>
   <v type="int" >       14 </v>
   <v type="int" >       15 </v>
   <v type="int" >       16 </v>
   <v type="int" >       17 </v>
   <v type="int" >       18 </v>
  </varray>
 </primitive_cell>
 <kpoints>
  <generation param="Gamma">
   <v type="int" name="divisions">       1        1        1 </v>
   <v name="usershift">      0.00000000       0.00000000       0.00000000 </v>
   <v name="genvec1">      1.00000000       0.00000000       0.00000000 </v>
   <v name="genvec2">      0.00000000       1.00000000       0.00000000 </v>
   <v name="genvec3">      0.00000000       0.00000000       1.00000000 </v>
   <v name="shift">      0.00000000       0.00000000       0.00000000 </v>
  </generation>
  <varray name="kpointlist" >
   <v>       0.00000000       0.00000000       0.00000000 </v>
  </varray>
  <varray name="weights" >
   <v>       1.00000000 </v>
  </varray>
 </kpoints>
 <parameters>
  <separator name="general" >
   <i type="string" name="SYSTEM">unknown system</i>
   <i type="logical" name="LCOMPAT"> F  </i>
  </separator>
  <separator name="electronic" >
   <i type="string" name="PREC">normal</i>
   <i name="ENMAX">    400.00000000</i>
   <i name="ENAUG">    644.87300000</i>
   <i name="EDIFF">      0.00010000</i>
   <i type="int" name="IALGO">    68</i>
   <i type="int" name="IWAVPR">    10</i>
   <i type="int" name="NBANDS">    40</i>
   <i type="int" name="NBANDSLOW">    -1</i>
   <i type="int" name="NBANDSHIGH">    -1</i>
   <i name="NELECT">     50.00000000</i>
   <i type="int" name="TURBO">     0</i>
   <i type="int" name="IRESTART">     0</i>
   <i type="int" name="NREBOOT">     0</i>
   <i type="int" name="NMIN">     0</i>
   <i name="EREF">      0.00000000</i>
   <separator name="electronic smearing" >
    <i type="int" name="ISMEAR">     0</i>
    <i name="SIGMA">      0.05000000</i>
    <i name="KSPACING">      0.50000000</i>
    <i type="logical" name="KGAMMA"> T  </i>
    <i type="logical" name="KBLOWUP"> T  </i>
   </separator>
   <separator name="electronic projectors" >
    <i type="logical" name="LREAL"> F  </i>
    <v name="ROPT">      0.00000000      0.00000000      0.00000000</v>
    <i type="int" name="LMAXPAW">  -100</i>
    <i type="int" name="LMAXMIX">     2</i>
    <i type="logical" name="NLSPLINE"> F  </i>
   </separator>
   <separator name="electronic startup" >
    <i type="int" name="ISTART">     0</i>
    <i type="int" name="ICHARG">     2</i>
    <i type="int" name="INIWAV">     1</i>
   </separator>
   <separator name="electronic spin" >
    <i type="int" name="ISPIN">     1</i>
    <i type="logical" name="LNONCOLLINEAR"> F  </i>
    <v name="MAGMOM">      1.00000000      1.00000000      1.00000000      1.00000000      1.00000000      1.00000000      1.00000000      1.00000000      1.00000000      1.00000000      1.00000000      1.00000000      1.00000000      1.00000000      1.00000000      1.00000000      1.00000000      1.00000000</v>
    <i name="NUPDOWN">     -1.00000000</i>
    <i type="logical" name="LSORBIT"> F  </i>
    <v name="SAXIS">      0.00000000      0.00000000      1.00000000</v>
    <i type="logical" name="LSPIRAL"> F  </i>
    <v name="QSPIRAL">      0.00000000      0.00000000      0.00000000</v>
    <i type="logical" name="LZEROZ"> F  </i>
   </separator>
   <separator name="electronic exchange-correlation" >
    <i type="logical" name="LASPH"> F  </i>
    <i type="logical" name="LMETAGGA"> F  </i>
   </separator>
   <separator name="electronic convergence" >
    <i type="int" name="NELM">    60</i>
    <i type="int" name="NELMDL">    -5</i>
    <i type="int" name="NELMIN">     2</i>
    <i name="ENINI">    400.00000000</i>
    <separator name="electronic convergence detail" >
     <i type="logical" name="LDIAG"> T  </i>
     <i type="logical" name="LSUBROT"> F  </i>
     <i name="WEIMIN">      0.00000000</i>
     <i name="EBREAK">      0.00000063</i>
     <i name="DEPER">      0.30000000</i>
     <i type="int" name="NRMM">     4</i>
     <i name="TIME">      0.40000000</i>
    </separator>
   </separator>
   <separator name="electronic mixer" >
    <i name="AMIX">      0.40000000</i>
    <i name="BMIX">      1.00000000</i>
    <i name="AMIN">      0.10000000</i>
    <i name="AMIX_MAG">      1.60000000</i>
    <i name="BMIX_MAG">      1.00000000</i>
    <separator name="electronic mixer details" >
     <i type="int" name="IMIX">     4</i>
     <i type="logical" name="MIXFIRST"> F  </i>
     <i type="int" name="MAXMIX">   -45</i>
     <i name="WC">    100.00000000</i>
     <i type="int" name="INIMIX">     1</i>
     <i type="int" name="MIXPRE">     1</i>
     <i type="int" name="MREMOVE">     5</i>
    </separator>
   </separator>
   <separator name="electronic dipolcorrection" >
    <i type="logical" name="LDIPOL"> F  </i>
    <i type="logical" name="LMONO"> F  </i>
    <i type="int" name="IDIPOL">     0</i>
    <i name="EPSILON">      1.00000000</i>
    <v name="DIPOL">   -100.00000000   -100.00000000   -100.00000000</v>
    <i name="EFIELD">      0.00000000</i>
   </separator>
  </separator>
  <separator name="grids" >
   <i type="int" name="NGX">    80</i>
   <i type="int" name="NGY">    80</i>
   <i type="int" name="NGZ">    80</i>
   <i type="int" name="NGXF">   160</i>
   <i type="int" name="NGYF">   160</i>
   <i type="int" name="NGZF">   160</i>
   <i type="logical" name="ADDGRID"> F  </i>
  </separator>
  <separator name="ionic" >
   <i type="int" name="NSW">     0</i>
   <i type="int" name="IBRION">    -1</i>
   <i type="int" name="MDALGO">     0</i>
   <i type="int" name="ISIF">     2</i>
   <i name="PSTRESS">      0.00000000</i>
   <i name="EDIFFG">      0.00100000</i>
   <i type="int" name="NFREE">     0</i>
   <i name="POTIM">      0.50000000</i>
   <i name="SMASS">     -3.00000000</i>
   <i name="SCALEE">      1.00000000</i>
  </separator>
  <separator name="ionic md" >
   <i name="TEBEG">      0.00010000</i>
   <i name="TEEND">      0.00010000</i>
   <i type="int" name="NBLOCK">     1</i>
   <i type="int" name="KBLOCK">     1</i>
   <i type="int" name="NPACO">   256</i>
   <i name="APACO">     10.00000000</i>
  </separator>
  <separator name="symmetry" >
   <i type="int" name="ISYM">     2</i>
   <i name="SYMPREC">      0.00001000</i>
  </separator>
  <separator name="dos" >
   <i type="int" name="LORBIT">     0</i>
   <v name="RWIGS">     -1.00000000     -1.00000000     -1.00000000</v>
   <i type="int" name="NEDOS">   301</i>
   <i name="EMIN">     10.00000000</i>
   <i name="EMAX">    -10.00000000</i>
   <i name="EFERMI">      0.00000000</i>
  </separator>
  <separator name="writing" >
   <i type="int" name="NWRITE">     2</i>
   <i type="logical" name="LWAVE"> F  </i>
   <i type="logical" name="LDOWNSAMPLE"> F  </i>
   <i type="logical" name="LCHARG"> F  </i>
   <i type="logical" name="LPARD"> F  </i>
   <i type="logical" name="LVTOT"> F  </i>
   <i type="logical" name="LVHAR"> F  </i>
   <i type="logical" name="LELF"> F  </i>
   <i type="logical" name="LOPTICS"> F  </i>
   <v name="STM">      0.00000000      0.00000000      0.00000000      0.00000000      0.00000000      0.00000000      0.00000000</v>
  </separator>
  <separator name="performance" >
   <i type="int" name="NPAR">    10</i>
   <i type="int" name="NSIM">     4</i>
   <i type="int" name="NBLK">    -1</i>
   <i type="logical" name="LPLANE"> T  </i>
   <i type="logical" name="LSCALAPACK"> T  </i>
   <i type="logical" name="LSCAAWARE"> F  </i>
   <i type="logical" name="LSCALU"> F  </i>
   <i type="logical" name="LASYNC"> F  </i>
   <i type="logical" name="LORBITALREAL"> F  </i>
  </separator>
  <separator name="miscellaneous" >
   <i type="int" name="IDIOT">     3</i>
   <i type="int" name="PHON_NSTRUCT">    -1</i>
   <i type="logical" name="LMUSIC"> F  </i>
   <v name="POMASS">     12.01100000      1.00000000     14.00100000</v>
   <v name="DARWINR">      0.00000000      0.00000000      0.00000000</v>
   <v name="DARWINV">      1.00000000      1.00000000      1.00000000</v>
   <i type="logical" name="LCORR"> T  </i>
  </separator>
  <i type="logical" name="GGA_COMPAT"> T  </i>
  <i type="logical" name="LBERRY"> F  </i>
  <i type="int" name="ICORELEVEL">     0</i>
  <i type="logical" name="LDAU"> F  </i>
  <i type="int" name="I_CONSTRAINED_M">     0</i>
  <separator name="electronic exchange-correlation" >
   <i type="string" name="GGA">PE</i>
   <i type="int" name="VOSKOWN">     0</i>
   <i type="logical" name="LHFCALC"> F  </i>
   <i type="string" name="PRECFOCK"></i>
   <i type="logical" name="LSYMGRAD"> F  </i>
   <i type="logical" name="LHFONE"> F  </i>
   <i type="logical" name="LRHFCALC"> F  </i>
   <i type="logical" name="LTHOMAS"> F  </i>
   <i type="logical" name="LMODELHF"> F  </i>
   <i type="logical" name="LFOCKACE"> F  </i>
   <i name="ENCUT4O">     -1.00000000</i>
   <i type="int" name="EXXOEP">     0</i>
   <i type="int" name="FOURORBIT">     0</i>
   <i name="AEXX">      0.00000000</i>
   <i name="HFALPHA">      0.00000000</i>
   <i name="MCALPHA">      0.00000000</i>
   <i name="ALDAX">      1.00000000</i>
   <i name="AGGAX">      1.00000000</i>
   <i name="ALDAC">      1.00000000</i>
   <i name="AGGAC">      1.00000000</i>
   <i type="int" name="NKREDX">     1</i>
   <i type="int" name="NKREDY">     1</i>
   <i type="int" name="NKREDZ">     1</i>
   <i type="logical" name="SHIFTRED"> F  </i>
   <i type="logical" name="ODDONLY"> F  </i>
   <i type="logical" name="EVENONLY"> F  </i>
   <i type="int" name="LMAXFOCK">     0</i>
   <i type="int" name="NMAXFOCKAE">     0</i>
   <i type="logical" name="LFOCKAEDFT"> F  </i>
   <i name="HFSCREEN">      0.00000000</i>
   <i name="HFSCREENC">      0.00000000</i>
   <i type="int" name="NBANDSGWLOW">     0</i>
  </separator>
  <separator name="vdW DFT" >
   <i type="logical" name="LUSE_VDW"> F  </i>
   <i name="Zab_VDW">     -0.84910000</i>
   <i name="PARAM1">      0.12340000</i>
   <i name="PARAM2">      1.00000000</i>
   <i name="PARAM3">      0.00000000</i>
  </separator>
  <separator name="model GW" >
   <i type="int" name="MODEL_GW">     0</i>
   <i name="MODEL_EPS0">    112.50000000</i>
   <i name="MODEL_ALPHA">      1.00000000</i>
  </separator>
  <separator name="linear response parameters" >
   <i type="logical" name="LEPSILON"> F  </i>
   <i type="logical" name="LRPA"> F  </i>
   <i type="logical" name="LNABLA"> F  </i>
   <i type="logical" name="LVEL"> F  </i>
   <i name="CSHIFT">      0.10000000</i>
   <i name="OMEGAMAX">     -1.00000000</i>
   <i name="DEG_THRESHOLD">      0.00200000</i>
   <i name="RTIME">     -0.10000000</i>
   <i name="WPLASMAI">      0.00000000</i>
   <v name="DFIELD">      0.00000000      0.00000000      0.00000000</v>
   <v name="WPLASMA">      0.00000000      0.00000000      0.00000000      0.00000000      0.00000000      0.00000000      0.00000000      0.00000000      0.00000000</v>
  </separator>
  <separator name="orbital magnetization" >
   <i type="logical" name="NUCIND"> F  </i>
   <v name="MAGPOS">      0.00000000      0.00000000      0.00000000</v>
   <i type="logical" name="LNICSALL"> T  </i>
   <i type="logical" name="ORBITALMAG"> F  </i>
   <i type="logical" name="LMAGBLOCH"> F  </i>
   <i type="logical" name="LCHIMAG"> F  </i>
   <i type="logical" name="LGAUGE"> T  </i>
   <i type="int" name="MAGATOM">     0</i>
   <v name="MAGDIPOL">      0.00000000      0.00000000      0.00000000</v>
   <v name="AVECCONST">      0.00000000      0.00000000      0.00000000</v>
  </separator>
  <separator name="response functions" >
   <i type="logical" name="LFINITE_TEMPERATURE"> F  </i>
   <i type="logical" name="LADDER"> F  </i>
   <i type="logical" name="LRPAFORCE"> F  </i>
   <i type="logical" name="LFXC"> F  </i>
   <i type="logical" name="LHARTREE"> T  </i>
   <i type="int" name="IBSE">     0</i>
   <v type="int" name="KPOINT">    -1     0     0     0</v>
   <i type="logical" name="LTCTC"> F  </i>
   <i type="logical" name="LTCTE"> F  </i>
   <i type="logical" name="LTETE"> F  </i>
   <i type="logical" name="LTRIPLET"> F  </i>
   <i type="logical" name="LFXCEPS"> F  </i>
   <i type="logical" name="LFXHEG"> F  </i>
   <i type="int" name="NATURALO">     2</i>
   <i type="logical" name="LHOLEGF"> F  </i>
   <i type="logical" name="L2ORDER"> F  </i>
   <i type="logical" name="LDMP1"> F  </i>
   <i type="logical" name="LMP2LT"> F  </i>
   <i type="logical" name="LSMP2LT"> F  </i>
   <i type="logical" name="LGWLF"> F  </i>
   <i name="ENCUTGW">     -2.00000000</i>
   <i name="ENCUTGWSOFT">     -2.00000000</i>
   <i name="ENCUTLF">     -1.00000000</i>
   <i type="logical" name="LESF_SPLINES"> F  </i>
   <i type="int" name="LMAXMP2">    -1</i>
   <i name="SCISSOR">      0.00000000</i>
   <i type="int" name="NOMEGA">     0</i>
   <i type="int" name="NOMEGAR">     0</i>
   <i type="int" name="NBANDSGW">    -1</i>
   <i type="int" name="NBANDSO">    -1</i>
   <i type="int" name="NBANDSV">    -1</i>
   <i type="int" name="NELMGW">     1</i>
   <i type="int" name="NELMHF">     1</i>
   <i type="int" name="DIM">     3</i>
   <i type="int" name="IESPILON">     4</i>
   <i type="int" name="ANTIRES">     0</i>
   <i name="OMEGAMAX">    -30.00000000</i>
   <i name="OMEGAMIN">    -30.00000000</i>
   <i name="OMEGATL">   -200.00000000</i>
   <i type="int" name="OMEGAGRID">     0</i>
   <i name="CSHIFT">     -0.10000000</i>
   <i type="logical" name="LSELFENERGY"> F  </i>
   <i type="logical" name="LSPECTRAL"> F  </i>
   <i type="logical" name="LSPECTRALGW"> F  </i>
   <i type="logical" name="LSINGLES"> F  </i>
   <i type="logical" name="LFERMIGW"> F  </i>
   <i type="logical" name="ODDONLYGW"> F  </i>
   <i type="logical" name="EVENONLYGW"> F  </i>
   <i type="int" name="NKREDLFX">     1</i>
   <i type="int" name="NKREDLFY">     1</i>
   <i type="int" name="NKREDLFZ">     1</i>
   <i type="int" name="MAXMEM">  2800</i>
   <i type="int" name="TELESCOPE">     0</i>
   <i type="int" name="NTAUPAR">    -1</i>
   <i type="int" name="NOMEGAPAR">    -1</i>
   <i name="DAMP_NEWTON">      0.80000001</i>
   <i name="LAMBDA">      1.00000000</i>
  </separator>
  <separator name="External order field" >
   <i name="OFIELD_KAPPA">      0.00000000</i>
   <v name="OFIELD_K">      0.00000000      0.00000000      0.00000000</v>
   <i name="OFIELD_Q6_NEAR">      0.00000000</i>
   <i name="OFIELD_Q6_FAR">      0.00000000</i>
   <i name="OFIELD_A">      0.00000000</i>
  </separator>
  <separator name="optional k-points parameters" >
   <i type="int" name="KPOINTS_OPT_MODE">     1</i>
   <i type="logical" name="LKPOINTS_OPT"> F  </i>
  </separator>
 </parameters>
 <atominfo>
  <atoms>      18 </atoms>
  <types>       3 </types>
  <array name="atoms" >
   <dimension dim="1">ion</dimension>
   <field type="string">element</field>
   <field type="int">atomtype</field>
   <set>
    <rc><c>C </c><c>   1</c></rc>
    <rc><c>C </c><c>   1</c></rc>
    <rc><c>C </c><c>   1</c></rc>
    <rc><c>C </c><c>   1</c></rc>
    <rc><c>C </c><c>   1</c></rc>
    <rc><c>C </c><c>   1</c></rc>
    <rc><c>C </c><c>   1</c></rc>
    <rc><c>C </c><c>   1</c></rc>
    <rc><c>H </c><c>   2</c></rc>
    <rc><c>H </c><c>   2</c></rc>
    <rc><c>H </c><c>   2</c></rc>
    <rc><c>H </c><c>   2</c></rc>
    <rc><c>H </c><c>   2</c></rc>
    <rc><c>H </c><c>   2</c></rc>
    <rc><c>H </c><c>   2</c></rc>
    <rc><c>H </c><c>   2</c></rc>
    <rc><c>N </c><c>   3</c></rc>
    <rc><c>N </c><c>   3</c></rc>
   </set>
  </array>
  <array name="atomtypes" >
   <dimension dim="1">type</dimension>
   <field type="int">atomspertype</field>
   <field type="string">element</field>
   <field>mass</field>
   <field>valence</field>
   <field type="string">pseudopotential</field>
   <set>
    <rc><c>   8</c><c>C </c><c>     12.01100000</c><c>      4.00000000</c><c>  PAW_PBE C 08Apr2002                   </c></rc>
    <rc><c>   8</c><c>H </c><c>      1.00000000</c><c>      1.00000000</c><c>  PAW_PBE H 15Jun2001                   </c></rc>
    <rc><c>   2</c><c>N </c><c>     14.00100000</c><c>      5.00000000</c><c>  PAW_PBE N 08Apr2002                   </c></rc>
   </set>
  </array>
 </atominfo>
 <structure name="initialpos" >
  <crystal>
   <varray name="basis" >
    <v>      15.00000000       0.00000000       0.00000000 </v>
    <v>       0.00000000      15.00000000       0.00000000 </v>
    <v>       0.00000000       0.00000000      15.00000000 </v>
   </varray>
   <i name="volume">   3375.00000000 </i>
   <varray name="rec_basis" >
    <v>       0.06666667       0.00000000       0.00000000 </v>
    <v>       0.00000000       0.06666667       0.00000000 </v>
    <v>       0.00000000       0.00000000       0.06666667 </v>
   </varray>
  </crystal>
  <varray name="positions" >
   <v>       0.38184175       0.52988762       0.62282208 </v>
   <v>       0.39423768       0.43314820       0.62264301 </v>
   <v>       0.46914597       0.38867468       0.64411820 </v>
   <v>       0.44641157       0.59207936       0.62667045 </v>
   <v>       0.51914242       0.52525083       0.42703504 </v>
   <v>       0.51380732       0.43520777       0.43066198 </v>
   <v>       0.59722389       0.57195922       0.45265977 </v>
   <v>       0.43602980       0.38817900       0.40467437 </v>
   <v>       0.33592667       0.39421205       0.60258434 </v>
   <v>       0.52932827       0.42266911       0.66693511 </v>
   <v>       0.47163826       0.31613091       0.64089816 </v>
   <v>       0.31270829       0.55248885       0.61743521 </v>
   <v>       0.51699483       0.57491339       0.63072182 </v>
   <v>       0.43030861       0.66291373       0.62657007 </v>
   <v>       0.46270390       0.56528725       0.40460166 </v>
   <v>       0.57001676       0.39531062       0.45392756 </v>
   <v>       0.66093520       0.61162705       0.47378453 </v>
   <v>       0.37273729       0.34805693       0.38322387 </v>
  </varray>
 </structure>
 <calculation>
  <scstep>
   <time name="dav">    0.83    0.97</time>
   <time name="total">    1.10    1.25</time>
   <energy>
    <i name="alphaZ">      3.36120243 </i>
    <i name="ewald">   2592.97276319 </i>
    <i name="hartreedc">  -3846.15106373 </i>
    <i name="XCdc">    158.49920404 </i>
    <i name="pawpsdc">   1295.11405375 </i>
    <i name="pawaedc">  -1302.12229068 </i>
    <i name="eentropy">     -0.00297452 </i>
    <i name="bandstr">   -317.55369676 </i>
    <i name="atom">   1805.79685712 </i>
    <i name="e_fr_energy">    389.91405483 </i>
    <i name="e_wo_entrp">    389.91702935 </i>
    <i name="e_0_energy">    389.91554209 </i>
   </energy>
  </scstep>
  <scstep>
   <time name="dav">    1.25    1.25</time>
   <time name="total">    1.25    1.25</time>
   <energy>
    <i name="e_fr_energy">     34.77602598 </i>
    <i name="e_wo_entrp">     34.77602598 </i>
    <i name="e_0_energy">     34.77602598 </i>
   </energy>
  </scstep>
  <scstep>
   <time name="dav">    1.11    1.15</time>
   <time name="total">    1.12    1.16</time>
   <energy>
    <i name="e_fr_energy">   -114.53698041 </i>
    <i name="e_wo_entrp">   -114.53698041 </i>
    <i name="e_0_energy">   -114.53698041 </i>
   </energy>
  </scstep>
  <scstep>
   <time name="dav">    0.80    0.86</time>
   <time name="total">    0.80    0.86</time>
   <energy>
    <i name="e_fr_energy">   -126.15804260 </i>
    <i name="e_wo_entrp">   -126.15804260 </i>
    <i name="e_0_energy">   -126.15804260 </i>
   </energy>
  </scstep>
  <scstep>
   <time name="dav">    0.81    0.84</time>
   <time name="total">    0.91    0.94</time>
   <energy>
    <i name="e_fr_energy">   -126.31424099 </i>
    <i name="e_wo_entrp">   -126.31424099 </i>
    <i name="e_0_energy">   -126.31424099 </i>
   </energy>
  </scstep>
  <scstep>
   <time name="diag">    0.11    0.11</time>
   <time name="diis">    0.63    0.64</time>
   <time name="orth">    0.01    0.01</time>
   <time name="total">    1.24    1.25</time>
   <energy>
    <i name="e_fr_energy">   -116.83998149 </i>
    <i name="e_wo_entrp">   -116.83998149 </i>
    <i name="e_0_energy">   -116.83998149 </i>
   </energy>
  </scstep>
  <scstep>
   <time name="diag">    0.10    0.10</time>
   <time name="diis">    0.64    0.66</time>
   <time name="orth">    0.00    0.00</time>
   <time name="total">    1.14    1.17</time>
   <energy>
    <i name="e_fr_energy">   -114.68128878 </i>
    <i name="e_wo_entrp">   -114.68128878 </i>
    <i name="e_0_energy">   -114.68128878 </i>
   </energy>
  </scstep>
  <scstep>
   <time name="diag">    0.12    0.13</time>
   <time name="diis">    0.81    0.82</time>
   <time name="orth">    0.00    0.00</time>
   <time name="total">    1.36    1.39</time>
   <energy>
    <i name="e_fr_energy">   -114.48292508 </i>
    <i name="e_wo_entrp">   -114.48292508 </i>
    <i name="e_0_energy">   -114.48292508 </i>
   </energy>
  </scstep>
  <scstep>
   <time name="diag">    0.13    0.13</time>
   <time name="diis">    0.81    0.81</time>
   <time name="orth">    0.00    0.00</time>
   <time name="total">    1.36    1.36</time>
   <energy>
    <i name="e_fr_energy">   -114.40164765 </i>
    <i name="e_wo_entrp">   -114.40164765 </i>
    <i name="e_0_energy">   -114.40164765 </i>
   </energy>
  </scstep>
  <scstep>
   <time name="diag">    0.13    0.13</time>
   <time name="diis">    0.89    0.90</time>
   <time name="orth">    0.00    0.00</time>
   <time name="total">    1.50    1.52</time>
   <energy>
    <i name="e_fr_energy">   -114.40586638 </i>
    <i name="e_wo_entrp">   -114.40586638 </i>
    <i name="e_0_energy">   -114.40586638 </i>
   </energy>
  </scstep>
  <scstep>
   <time name="diag">    0.12    0.12</time>
   <time name="diis">    0.66    0.66</time>
   <time name="orth">    0.01    0.01</time>
   <time name="total">    1.25    1.25</time>
   <energy>
    <i name="e_fr_energy">   -114.41930268 </i>
    <i name="e_wo_entrp">   -114.41930268 </i>
    <i name="e_0_energy">   -114.41930268 </i>
   </energy>
  </scstep>
  <scstep>
   <time name="diag">    0.08    0.08</time>
   <time name="diis">    0.63    0.63</time>
   <time name="orth">    0.00    0.00</time>
   <time name="total">    1.02    1.03</time>
   <energy>
    <i name="e_fr_energy">   -114.41804771 </i>
    <i name="e_wo_entrp">   -114.41804771 </i>
    <i name="e_0_energy">   -114.41804771 </i>
   </energy>
  </scstep>
  <scstep>
   <time name="diag">    0.13    0.13</time>
   <time name="diis">    0.75    0.92</time>
   <time name="orth">    0.01    0.01</time>
   <time name="total">    1.30    1.49</time>
   <energy>
    <i name="e_fr_energy">   -114.42988072 </i>
    <i name="e_wo_entrp">   -114.42988072 </i>
    <i name="e_0_energy">   -114.42988072 </i>
   </energy>
  </scstep>
  <scstep>
   <time name="diag">    0.14    0.14</time>
   <time name="diis">    0.89    0.90</time>
   <time name="orth">    0.00    0.00</time>
   <time name="total">    1.44    1.46</time>
   <energy>
    <i name="e_fr_energy">   -114.43129445 </i>
    <i name="e_wo_entrp">   -114.43129445 </i>
    <i name="e_0_energy">   -114.43129445 </i>
   </energy>
  </scstep>
  <scstep>
   <time name="diag">    0.10    0.11</time>
   <time name="diis">    0.62    0.62</time>
   <time name="orth">    0.01    0.01</time>
   <time name="total">    1.13    1.14</time>
   <energy>
    <i name="e_fr_energy">   -114.44067383 </i>
    <i name="e_wo_entrp">   -114.44067383 </i>
    <i name="e_0_energy">   -114.44067383 </i>
   </energy>
  </scstep>
  <scstep>
   <time name="diag">    0.08    0.08</time>
   <time name="diis">    0.57    0.58</time>
   <time name="orth">    0.00    0.00</time>
   <time name="total">    0.94    0.94</time>
   <energy>
    <i name="e_fr_energy">   -114.44279371 </i>
    <i name="e_wo_entrp">   -114.44279371 </i>
    <i name="e_0_energy">   -114.44279371 </i>
   </energy>
  </scstep>
  <scstep>
   <time name="diag">    0.08    0.08</time>
   <time name="diis">    0.58    0.58</time>
   <time name="orth">    0.01    0.01</time>
   <time name="total">    0.99    0.99</time>
   <energy>
    <i name="e_fr_energy">   -114.44432026 </i>
    <i name="e_wo_entrp">   -114.44432026 </i>
    <i name="e_0_energy">   -114.44432026 </i>
   </energy>
  </scstep>
  <scstep>
   <time name="diag">    0.10    0.10</time>
   <time name="diis">    0.56    0.64</time>
   <time name="orth">    0.00    0.01</time>
   <time name="total">    1.16    1.31</time>
   <energy>
    <i name="e_fr_energy">   -114.44522137 </i>
    <i name="e_wo_entrp">   -114.44522137 </i>
    <i name="e_0_energy">   -114.44522137 </i>
   </energy>
  </scstep>
  <scstep>
   <time name="diag">    0.12    0.12</time>
   <time name="diis">    0.52    0.53</time>
   <time name="orth">    0.00    0.00</time>
   <time name="total">    0.94    1.00</time>
   <energy>
    <i name="e_fr_energy">   -114.44550070 </i>
    <i name="e_wo_entrp">   -114.44550070 </i>
    <i name="e_0_energy">   -114.44550070 </i>
   </energy>
  </scstep>
  <scstep>
   <time name="diag">    0.10    0.10</time>
   <time name="diis">    0.52    0.53</time>
   <time name="orth">    0.00    0.00</time>
   <time name="total">    0.95    0.96</time>
   <energy>
    <i name="e_fr_energy">   -114.44569516 </i>
    <i name="e_wo_entrp">   -114.44569516 </i>
    <i name="e_0_energy">   -114.44569516 </i>
   </energy>
  </scstep>
  <scstep>
   <time name="diag">    0.22    0.22</time>
   <time name="diis">    0.52    0.52</time>
   <time name="orth">    0.01    0.01</time>
   <time name="total">    1.01    1.02</time>
   <energy>
    <i name="alphaZ">      3.36120243 </i>
    <i name="ewald">   2592.97276319 </i>
    <i name="hartreedc">  -4045.02016986 </i>
    <i name="XCdc">    169.02138918 </i>
    <i name="pawpsdc">   4390.30805589 </i>
    <i name="pawaedc">  -4398.65992937 </i>
    <i name="eentropy">     -0.00000000 </i>
    <i name="bandstr">   -632.22593679 </i>
    <i name="atom">   1805.79685712 </i>
    <i name="e_fr_energy">   -114.44576822 </i>
    <i name="e_wo_entrp">   -114.44576822 </i>
    <i name="e_0_energy">   -114.44576822 </i>
   </energy>
  </scstep>
  <structure>
   <crystal>
    <varray name="basis" >
     <v>      15.00000000       0.00000000       0.00000000 </v>
     <v>       0.00000000      15.00000000       0.00000000 </v>
     <v>       0.00000000       0.00000000      15.00000000 </v>
    </varray>
    <i name="volume">   3375.00000000 </i>
    <varray name="rec_basis" >
     <v>       0.06666667       0.00000000       0.00000000 </v>
     <v>       0.00000000       0.06666667       0.00000000 </v>
     <v>       0.00000000       0.00000000       0.06666667 </v>
    </varray>
   </crystal>
   <varray name="positions" >
    <v>       0.38184175       0.52988762       0.62282208 </v>
    <v>       0.39423768       0.43314820       0.62264301 </v>
    <v>       0.46914597       0.38867468       0.64411820 </v>
    <v>       0.44641157       0.59207936       0.62667045 </v>
    <v>       0.51914242       0.52525083       0.42703504 </v>
    <v>       0.51380732       0.43520777       0.43066198 </v>
    <v>       0.59722389       0.57195922       0.45265977 </v>
    <v>       0.43602980       0.38817900       0.40467437 </v>
    <v>       0.33592667       0.39421205       0.60258434 </v>
    <v>       0.52932827       0.42266911       0.66693511 </v>
    <v>       0.47163826       0.31613091       0.64089816 </v>
    <v>       0.31270829       0.55248885       0.61743521 </v>
    <v>       0.51699483       0.57491339       0.63072182 </v>
    <v>       0.43030861       0.66291373       0.62657007 </v>
    <v>       0.46270390       0.56528725       0.40460166 </v>
    <v>       0.57001676       0.39531062       0.45392756 </v>
    <v>       0.66093520       0.61162705       0.47378453 </v>
    <v>       0.37273729       0.34805693       0.38322387 </v>
   </varray>
  </structure>
  <varray name="forces" >
   <v>       0.03861116      -0.02251175       0.00423380 </v>
   <v>       0.02932143       0.02657182       0.00946450 </v>
   <v>      -0.03281462       0.02043404      -0.00984877 </v>
   <v>      -0.03414404      -0.03139426      -0.00428286 </v>
   <v>       0.02972241      -0.02648984       0.01267543 </v>
   <v>      -0.02637481       0.03306718      -0.01430936 </v>
   <v>      -0.14700563      -0.09292965      -0.04680363 </v>
   <v>       0.14426388       0.09396308       0.04962259 </v>
   <v>      -0.02150558      -0.01533255      -0.00670045 </v>
   <v>       0.02418187       0.01833540       0.01348813 </v>
   <v>       0.00334974      -0.03059423       0.00154382 </v>
   <v>      -0.03039244       0.00874126       0.00000217 </v>
   <v>       0.03152046      -0.00963061      -0.00270294 </v>
   <v>      -0.00918703       0.03488146      -0.00056078 </v>
   <v>      -0.01961160       0.01594845      -0.01132430 </v>
   <v>       0.02309166      -0.02151945       0.00586624 </v>
   <v>       0.14065627       0.08728324       0.04942587 </v>
   <v>      -0.14368312      -0.08882359      -0.04978945 </v>
  </varray>
  <varray name="stress" >
   <v>      -0.96035432       0.07595419       0.08667024 </v>
   <v>       0.07595419      -1.07588346       0.02594624 </v>
   <v>       0.08667024       0.02594624      -1.23185563 </v>
  </varray>
  <energy>
   <i name="e_fr_energy">   -114.69667204 </i>
   <i name="e_wo_entrp">   -114.69667204 </i>
   <i name="e_0_energy">   -114.69667204 </i>
  </energy>
  <time name="totalsc">   25.20   26.04</time>
  <eigenvalues>
   <array>
    <dimension dim="1">band</dimension>
    <dimension dim="2">kpoint</dimension>
    <dimension dim="3">spin</dimension>
    <field>eigene</field>
    <field>occ</field>
    <set>
     <set comment="spin 1">
      <set comment="kpoint 1">
       <r>  -23.0228    1.0000 </r>
       <r>  -22.8741    1.0000 </r>
       <r>  -21.0303    1.0000 </r>
       <r>  -20.0814    1.0000 </r>
       <r>  -18.1273    1.0000 </r>
       <r>  -17.7413    1.0000 </r>
       <r>  -15.4341    1.0000 </r>
       <r>  -13.9765    1.0000 </r>
       <r>  -13.4911    1.0000 </r>
       <r>  -13.0368    1.0000 </r>
       <r>  -12.1626    1.0000 </r>
       <r>  -11.2290    1.0000 </r>
       <r>  -10.8417    1.0000 </r>
       <r>  -10.3304    1.0000 </r>
       <r>  -10.1236    1.0000 </r>
       <r>   -9.1980    1.0000 </r>
       <r>   -8.9535    1.0000 </r>
       <r>   -8.7990    1.0000 </r>
       <r>   -8.7743    1.0000 </r>
       <r>   -8.6307    1.0000 </r>
       <r>   -8.5244    1.0000 </r>
       <r>   -8.4497    1.0000 </r>
       <r>   -8.0740    1.0000 </r>
       <r>   -7.2172    1.0000 </r>
       <r>   -5.9892    1.0000 </r>
       <r>   -3.5726    0.0000 </r>
       <r>   -2.3299    0.0000 </r>
       <r>   -1.0642    0.0000 </r>
       <r>   -0.8501    0.0000 </r>
       <r>   -0.3405    0.0000 </r>
       <r>   -0.1134    0.0000 </r>
       <r>    0.0970    0.0000 </r>
       <r>    0.2376    0.0000 </r>
       <r>    0.3751    0.0000 </r>
       <r>    0.4759    0.0000 </r>
       <r>    0.5344    0.0000 </r>
       <r>    0.5805    0.0000 </r>
       <r>    0.6581    0.0000 </r>
       <r>    0.7614    0.0000 </r>
       <r>    1.0884    0.0000 </r>
      </set>
     </set>
    </set>
   </array>
  </eigenvalues>
  <separator name="orbital magnetization" >
   <v name="MAGDIPOLOUT">      0.00000000      0.00000000      0.00000000</v>
  </separator>
  <dos>
   <i name="efermi">     -5.74006780 </i>
   <total>
    <array>
     <dimension dim="1">gridpoints</dimension>
     <dimension dim="2">spin</dimension>
     <field>energy</field>
     <field>total</field>
     <field>integrated</field>
     <set>
      <set comment="spin 1">
       <r>   -24.2283     0.0000     0.0000 </r>
       <r>   -24.1399     0.0000     0.0000 </r>
       <r>   -24.0515     0.0000     0.0000 </r>
       <r>   -23.9631     0.0000     0.0000 </r>
       <r>   -23.8747     0.0000     0.0000 </r>
       <r>   -23.7863     0.0000     0.0000 </r>
       <r>   -23.6979     0.0000     0.0000 </r>
       <r>   -23.6095     0.0000     0.0000 </r>
       <r>   -23.5211     0.0000     0.0000 </r>
       <r>   -23.4327     0.0000     0.0000 </r>
       <r>   -23.3443     0.0000     0.0000 </r>
       <r>   -23.2558     0.0000     0.0000 </r>
       <r>   -23.1674     0.0005     0.0000 </r>
       <r>   -23.0790     1.2613     0.1116 </r>
       <r>   -22.9906    17.2636     1.6378 </r>
       <r>   -22.9022     8.9217     2.4265 </r>
       <r>   -22.8138    16.8034     3.9121 </r>
       <r>   -22.7254     0.9941     4.0000 </r>
       <r>   -22.6370     0.0003     4.0000 </r>
       <r>   -22.5486     0.0000     4.0000 </r>
       <r>   -22.4602     0.0000     4.0000 </r>
       <r>   -22.3718     0.0000     4.0000 </r>
       <r>   -22.2834     0.0000     4.0000 </r>
       <r>   -22.1950     0.0000     4.0000 </r>
       <r>   -22.1065     0.0000     4.0000 </r>
       <r>   -22.0181     0.0000     4.0000 </r>
       <r>   -21.9297     0.0000     4.0000 </r>
       <r>   -21.8413     0.0000     4.0000 </r>
       <r>   -21.7529     0.0000     4.0000 </r>
       <r>   -21.6645     0.0000     4.0000 </r>
       <r>   -21.5761     0.0000     4.0000 </r>
       <r>   -21.4877     0.0000     4.0000 </r>
       <r>   -21.3993     0.0000     4.0000 </r>
       <r>   -21.3109     0.0000     4.0000 </r>
       <r>   -21.2225     0.0000     4.0000 </r>
       <r>   -21.1341     0.0379     4.0033 </r>
       <r>   -21.0457     7.4821     4.6648 </r>
       <r>   -20.9572    14.6647     5.9613 </r>
       <r>   -20.8688     0.4378     6.0000 </r>
       <r>   -20.7804     0.0001     6.0000 </r>
       <r>   -20.6920     0.0000     6.0000 </r>
       <r>   -20.6036     0.0000     6.0000 </r>
       <r>   -20.5152     0.0000     6.0000 </r>
       <r>   -20.4268     0.0000     6.0000 </r>
       <r>   -20.3384     0.0000     6.0000 </r>
       <r>   -20.2500     0.0000     6.0000 </r>
       <r>   -20.1616     0.2641     6.0234 </r>
       <r>   -20.0732    13.1305     7.1842 </r>
       <r>   -19.9848     9.1569     7.9937 </r>
       <r>   -19.8964     0.0709     8.0000 </r>
       <r>   -19.8079     0.0000     8.0000 </r>
       <r>   -19.7195     0.0000     8.0000 </r>
       <r>   -19.6311     0.0000     8.0000 </r>
       <r>   -19.5427     0.0000     8.0000 </r>
       <r>   -19.4543     0.0000     8.0000 </r>
       <r>   -19.3659     0.0000     8.0000 </r>
       <r>   -19.2775     0.0000     8.0000 </r>
       <r>   -19.1891     0.0000     8.0000 </r>
       <r>   -19.1007     0.0000     8.0000 </r>
       <r>   -19.0123     0.0000     8.0000 </r>
       <r>   -18.9239     0.0000     8.0000 </r>
       <r>   -18.8355     0.0000     8.0000 </r>
       <r>   -18.7471     0.0000     8.0000 </r>
       <r>   -18.6586     0.0000     8.0000 </r>
       <r>   -18.5702     0.0000     8.0000 </r>
       <r>   -18.4818     0.0000     8.0000 </r>
       <r>   -18.3934     0.0000     8.0000 </r>
       <r>   -18.3050     0.0000     8.0000 </r>
       <r>   -18.2166     0.1303     8.0115 </r>
       <r>   -18.1282    10.9462     8.9792 </r>
       <r>   -18.0398    11.3951     9.9867 </r>
       <r>   -17.9514     0.1509    10.0000 </r>
       <r>   -17.8630     0.0066    10.0006 </r>
       <r>   -17.7746     3.9167    10.3468 </r>
       <r>   -17.6862    17.3554    11.8812 </r>
       <r>   -17.5978     1.3432    12.0000 </r>
       <r>   -17.5093     0.0006    12.0000 </r>
       <r>   -17.4209     0.0000    12.0000 </r>
       <r>   -17.3325     0.0000    12.0000 </r>
       <r>   -17.2441     0.0000    12.0000 </r>
       <r>   -17.1557     0.0000    12.0000 </r>
       <r>   -17.0673     0.0000    12.0000 </r>
       <r>   -16.9789     0.0000    12.0000 </r>
       <r>   -16.8905     0.0000    12.0000 </r>
       <r>   -16.8021     0.0000    12.0000 </r>
       <r>   -16.7137     0.0000    12.0000 </r>
       <r>   -16.6253     0.0000    12.0000 </r>
       <r>   -16.5369     0.0000    12.0000 </r>
       <r>   -16.4485     0.0000    12.0000 </r>
       <r>   -16.3600     0.0000    12.0000 </r>
       <r>   -16.2716     0.0000    12.0000 </r>
       <r>   -16.1832     0.0000    12.0000 </r>
       <r>   -16.0948     0.0000    12.0000 </r>
       <r>   -16.0064     0.0000    12.0000 </r>
       <r>   -15.9180     0.0000    12.0000 </r>
       <r>   -15.8296     0.0000    12.0000 </r>
       <r>   -15.7412     0.0000    12.0000 </r>
       <r>   -15.6528     0.0000    12.0000 </r>
       <r>   -15.5644     0.0026    12.0002 </r>
       <r>   -15.4760     2.6687    12.2362 </r>
       <r>   -15.3876    17.8224    13.8118 </r>
       <r>   -15.2992     2.1273    13.9999 </r>
       <r>   -15.2107     0.0015    14.0000 </r>
       <r>   -15.1223     0.0000    14.0000 </r>
       <r>   -15.0339     0.0000    14.0000 </r>
       <r>   -14.9455     0.0000    14.0000 </r>
       <r>   -14.8571     0.0000    14.0000 </r>
       <r>   -14.7687     0.0000    14.0000 </r>
       <r>   -14.6803     0.0000    14.0000 </r>
       <r>   -14.5919     0.0000    14.0000 </r>
       <r>   -14.5035     0.0000    14.0000 </r>
       <r>   -14.4151     0.0000    14.0000 </r>
       <r>   -14.3267     0.0000    14.0000 </r>
       <r>   -14.2383     0.0000    14.0000 </r>
       <r>   -14.1499     0.0000    14.0000 </r>
       <r>   -14.0614     0.1843    14.0163 </r>
       <r>   -13.9730    12.0118    15.0782 </r>
       <r>   -13.8846    10.3205    15.9906 </r>
       <r>   -13.7962     0.1058    16.0000 </r>
       <r>   -13.7078     0.0000    16.0000 </r>
       <r>   -13.6194     0.0032    16.0003 </r>
       <r>   -13.5310     2.9263    16.2590 </r>
       <r>   -13.4426    17.7685    17.8299 </r>
       <r>   -13.3542     1.9232    17.9999 </r>
       <r>   -13.2658     0.0012    18.0000 </r>
       <r>   -13.1774     0.0008    18.0001 </r>
       <r>   -13.0890     1.5855    18.1402 </r>
       <r>   -13.0006    17.5856    19.6949 </r>
       <r>   -12.9121     3.4458    19.9996 </r>
       <r>   -12.8237     0.0048    20.0000 </r>
       <r>   -12.7353     0.0000    20.0000 </r>
       <r>   -12.6469     0.0000    20.0000 </r>
       <r>   -12.5585     0.0000    20.0000 </r>
       <r>   -12.4701     0.0000    20.0000 </r>
       <r>   -12.3817     0.0000    20.0000 </r>
       <r>   -12.2933     0.0025    20.0002 </r>
       <r>   -12.2049     2.6152    20.2314 </r>
       <r>   -12.1165    17.8298    21.8077 </r>
       <r>   -12.0281     2.1734    21.9999 </r>
       <r>   -11.9397     0.0016    22.0000 </r>
       <r>   -11.8513     0.0000    22.0000 </r>
       <r>   -11.7628     0.0000    22.0000 </r>
       <r>   -11.6744     0.0000    22.0000 </r>
       <r>   -11.5860     0.0000    22.0000 </r>
       <r>   -11.4976     0.0000    22.0000 </r>
       <r>   -11.4092     0.0000    22.0000 </r>
       <r>   -11.3208     0.1065    22.0094 </r>
       <r>   -11.2324    10.3387    22.9234 </r>
       <r>   -11.1440    11.9941    23.9838 </r>
       <r>   -11.0556     0.1832    24.0000 </r>
       <r>   -10.9672     0.0044    24.0004 </r>
       <r>   -10.8788     3.3192    24.2938 </r>
       <r>   -10.7904    17.6380    25.8532 </r>
       <r>   -10.7020     1.6601    25.9999 </r>
       <r>   -10.6135     0.0009    26.0000 </r>
       <r>   -10.5251     0.0000    26.0000 </r>
       <r>   -10.4367     0.0297    26.0026 </r>
       <r>   -10.3483     6.8851    26.6113 </r>
       <r>   -10.2599    15.1849    27.9538 </r>
       <r>   -10.1715     2.5035    28.1751 </r>
       <r>   -10.0831    17.7871    29.7476 </r>
       <r>    -9.9947     2.8516    29.9997 </r>
       <r>    -9.9063     0.0030    30.0000 </r>
       <r>    -9.8179     0.0000    30.0000 </r>
       <r>    -9.7295     0.0000    30.0000 </r>
       <r>    -9.6411     0.0000    30.0000 </r>
       <r>    -9.5527     0.0000    30.0000 </r>
       <r>    -9.4642     0.0000    30.0000 </r>
       <r>    -9.3758     0.0000    30.0000 </r>
       <r>    -9.2874     0.1296    30.0115 </r>
       <r>    -9.1990    10.9306    30.9778 </r>
       <r>    -9.1106    11.4107    31.9866 </r>
       <r>    -9.0222     0.7415    32.0522 </r>
       <r>    -8.9338    15.5147    33.4238 </r>
       <r>    -8.8454     9.1408    34.2319 </r>
       <r>    -8.7570    32.9096    37.1414 </r>
       <r>    -8.6686    12.8898    38.2809 </r>
       <r>    -8.5802    19.0177    39.9622 </r>
       <r>    -8.4918    21.6774    41.8787 </r>
       <r>    -8.4034    21.8376    43.8093 </r>
       <r>    -8.3149     2.1555    43.9999 </r>
       <r>    -8.2265     0.0017    44.0000 </r>
       <r>    -8.1381     0.7864    44.0695 </r>
       <r>    -8.0497    16.2602    45.5071 </r>
       <r>    -7.9613     5.5594    45.9986 </r>
       <r>    -7.8729     0.0163    46.0000 </r>
       <r>    -7.7845     0.0000    46.0000 </r>
       <r>    -7.6961     0.0000    46.0000 </r>
       <r>    -7.6077     0.0000    46.0000 </r>
       <r>    -7.5193     0.0000    46.0000 </r>
       <r>    -7.4309     0.0000    46.0000 </r>
       <r>    -7.3425     0.0045    46.0004 </r>
       <r>    -7.2540     3.3619    46.2976 </r>
       <r>    -7.1656    17.6208    47.8554 </r>
       <r>    -7.0772     1.6344    47.9999 </r>
       <r>    -6.9888     0.0008    48.0000 </r>
       <r>    -6.9004     0.0000    48.0000 </r>
       <r>    -6.8120     0.0000    48.0000 </r>
       <r>    -6.7236     0.0000    48.0000 </r>
       <r>    -6.6352     0.0000    48.0000 </r>
       <r>    -6.5468     0.0000    48.0000 </r>
       <r>    -6.4584     0.0000    48.0000 </r>
       <r>    -6.3700     0.0000    48.0000 </r>
       <r>    -6.2816     0.0000    48.0000 </r>
       <r>    -6.1932     0.0000    48.0000 </r>
       <r>    -6.1047     0.0123    48.0011 </r>
       <r>    -6.0163     4.9967    48.4428 </r>
       <r>    -5.9279    16.6739    49.9169 </r>
       <r>    -5.8395     0.9394    50.0000 </r>
       <r>    -5.7511     0.0003    50.0000 </r>
       <r>    -5.6627     0.0000    50.0000 </r>
       <r>    -5.5743     0.0000    50.0000 </r>
       <r>    -5.4859     0.0000    50.0000 </r>
       <r>    -5.3975     0.0000    50.0000 </r>
       <r>    -5.3091     0.0000    50.0000 </r>
       <r>    -5.2207     0.0000    50.0000 </r>
       <r>    -5.1323     0.0000    50.0000 </r>
       <r>    -5.0439     0.0000    50.0000 </r>
       <r>    -4.9554     0.0000    50.0000 </r>
       <r>    -4.8670     0.0000    50.0000 </r>
       <r>    -4.7786     0.0000    50.0000 </r>
       <r>    -4.6902     0.0000    50.0000 </r>
       <r>    -4.6018     0.0000    50.0000 </r>
       <r>    -4.5134     0.0000    50.0000 </r>
       <r>    -4.4250     0.0000    50.0000 </r>
       <r>    -4.3366     0.0000    50.0000 </r>
       <r>    -4.2482     0.0000    50.0000 </r>
       <r>    -4.1598     0.0000    50.0000 </r>
       <r>    -4.0714     0.0000    50.0000 </r>
       <r>    -3.9830     0.0000    50.0000 </r>
       <r>    -3.8946     0.0000    50.0000 </r>
       <r>    -3.8061     0.0000    50.0000 </r>
       <r>    -3.7177     0.0005    50.0000 </r>
       <r>    -3.6293     1.2252    50.1084 </r>
       <r>    -3.5409    17.2023    51.6292 </r>
       <r>    -3.4525     4.1867    51.9993 </r>
       <r>    -3.3641     0.0077    52.0000 </r>
       <r>    -3.2757     0.0000    52.0000 </r>
       <r>    -3.1873     0.0000    52.0000 </r>
       <r>    -3.0989     0.0000    52.0000 </r>
       <r>    -3.0105     0.0000    52.0000 </r>
       <r>    -2.9221     0.0000    52.0000 </r>
       <r>    -2.8337     0.0000    52.0000 </r>
       <r>    -2.7453     0.0000    52.0000 </r>
       <r>    -2.6568     0.0000    52.0000 </r>
       <r>    -2.5684     0.0000    52.0000 </r>
       <r>    -2.4800     0.0002    52.0000 </r>
       <r>    -2.3916     0.9166    52.0811 </r>
       <r>    -2.3032    16.6192    53.5503 </r>
       <r>    -2.2148     5.0736    53.9989 </r>
       <r>    -2.1264     0.0128    54.0000 </r>
       <r>    -2.0380     0.0000    54.0000 </r>
       <r>    -1.9496     0.0000    54.0000 </r>
       <r>    -1.8612     0.0000    54.0000 </r>
       <r>    -1.7728     0.0000    54.0000 </r>
       <r>    -1.6844     0.0000    54.0000 </r>
       <r>    -1.5960     0.0000    54.0000 </r>
       <r>    -1.5075     0.0000    54.0000 </r>
       <r>    -1.4191     0.0000    54.0000 </r>
       <r>    -1.3307     0.0000    54.0000 </r>
       <r>    -1.2423     0.0000    54.0000 </r>
       <r>    -1.1539     0.1260    54.0111 </r>
       <r>    -1.0655    10.8438    54.9698 </r>
       <r>    -0.9771    11.5005    55.9865 </r>
       <r>    -0.8887     3.2647    56.2752 </r>
       <r>    -0.8003    17.7144    57.8413 </r>
       <r>    -0.7119     1.7946    57.9999 </r>
       <r>    -0.6235     0.0010    58.0000 </r>
       <r>    -0.5351     0.0000    58.0000 </r>
       <r>    -0.4467     0.0304    58.0027 </r>
       <r>    -0.3582     6.9428    58.6165 </r>
       <r>    -0.2698    15.1343    59.9545 </r>
       <r>    -0.1814     1.1310    60.0545 </r>
       <r>    -0.0930    15.6314    61.4364 </r>
       <r>    -0.0046     6.3971    62.0020 </r>
       <r>     0.0838     7.9868    62.7081 </r>
       <r>     0.1722    14.9628    64.0309 </r>
       <r>     0.2606    16.4607    65.4861 </r>
       <r>     0.3490    11.0113    66.4596 </r>
       <r>     0.4374    19.7346    68.2043 </r>
       <r>     0.5258    29.0372    70.7714 </r>
       <r>     0.6142    34.8205    73.8498 </r>
       <r>     0.7026    23.0549    75.8880 </r>
       <r>     0.7911    19.3449    77.5983 </r>
       <r>     0.8795     4.5345    77.9992 </r>
       <r>     0.9679     0.0168    78.0007 </r>
       <r>     1.0563     4.1009    78.3632 </r>
       <r>     1.1447    17.2525    79.8884 </r>
       <r>     1.2331     1.2613    80.0000 </r>
       <r>     1.3215     0.0005    80.0000 </r>
       <r>     1.4099     0.0000    80.0000 </r>
       <r>     1.4983     0.0000    80.0000 </r>
       <r>     1.5867     0.0000    80.0000 </r>
       <r>     1.6751     0.0000    80.0000 </r>
       <r>     1.7635     0.0000    80.0000 </r>
       <r>     1.8519     0.0000    80.0000 </r>
       <r>     1.9404     0.0000    80.0000 </r>
       <r>     2.0288     0.0000    80.0000 </r>
       <r>     2.1172     0.0000    80.0000 </r>
       <r>     2.2056     0.0000    80.0000 </r>
       <r>     2.2940     0.0000    80.0000 </r>
      </set>
     </set>
    </array>
   </total>
  </dos>
 </calculation>
 <structure name="finalpos" >
  <crystal>
   <varray name="basis" >
    <v>      15.00000000       0.00000000       0.00000000 </v>
    <v>       0.00000000      15.00000000       0.00000000 </v>
    <v>       0.00000000       0.00000000      15.00000000 </v>
   </varray>
   <i name="volume">   3375.00000000 </i>
   <varray name="rec_basis" >
    <v>       0.06666667       0.00000000       0.00000000 </v>
    <v>       0.00000000       0.06666667       0.00000000 </v>
    <v>       0.00000000       0.00000000       0.06666667 </v>
   </varray>
  </crystal>
  <varray name="positions" >
   <v>       0.38184175       0.52988762       0.62282208 </v>
   <v>       0.39423768       0.43314820       0.62264301 </v>
   <v>       0.46914597       0.38867468       0.64411820 </v>
   <v>       0.44641157       0.59207936       0.62667045 </v>
   <v>       0.51914242       0.52525083       0.42703504 </v>
   <v>       0.51380732       0.43520777       0.43066198 </v>
   <v>       0.59722389       0.57195922       0.45265977 </v>
   <v>       0.43602980       0.38817900       0.40467437 </v>
   <v>       0.33592667       0.39421205       0.60258434 </v>
   <v>       0.52932827       0.42266911       0.66693511 </v>
   <v>       0.47163826       0.31613091       0.64089816 </v>
   <v>       0.31270829       0.55248885       0.61743521 </v>
   <v>       0.51699483       0.57491339       0.63072182 </v>
   <v>       0.43030861       0.66291373       0.62657007 </v>
   <v>       0.46270390       0.56528725       0.40460166 </v>
   <v>       0.57001676       0.39531062       0.45392756 </v>
   <v>       0.66093520       0.61162705       0.47378453 </v>
   <v>       0.37273729       0.34805693       0.38322387 </v>
  </varray>
 </structure>
</modeling>
