unknown system                          
           1
    15.000000    0.000000    0.000000
     0.000000   15.000000    0.000000
     0.000000    0.000000   15.000000
   C    H    N 
     8     8     2
Direct configuration=     1
   0.38184175  0.52988762  0.62282208
   0.39423768  0.43314820  0.62264301
   0.46914597  0.38867468  0.64411820
   0.44641157  0.59207936  0.62667045
   0.51914242  0.52525083  0.42703504
   0.51380732  0.43520777  0.43066198
   0.59722389  0.57195922  0.45265977
   0.43602980  0.38817900  0.40467437
   0.33592667  0.39421205  0.60258434
   0.52932827  0.42266911  0.66693511
   0.47163826  0.31613091  0.64089816
   0.31270829  0.55248885  0.61743521
   0.51699483  0.57491339  0.63072182
   0.43030861  0.66291373  0.62657007
   0.46270390  0.56528725  0.40460166
   0.57001676  0.39531062  0.45392756
   0.66093520  0.61162705  0.47378453
   0.37273729  0.34805693  0.38322387
