   17   17 5000    1
  0.2149333E+03  0.1540225E-08  0.1540225E-08  0.1540225E-08  0.1000000E-15
  1.000000000000000E-004
  CAR 
 unknown system                          
     42      1     30
 
  0.0000000E+00  0.0000000E+00  0.0000000E+00  0.1000000E+01
      1        -22.271172   1.000000
      2        -21.147522   1.000000
      3        -19.112006   1.000000
      4        -18.695699   1.000000
      5        -15.985110   1.000000
      6        -15.467323   1.000000
      7        -13.028474   1.000000
      8        -12.942681   1.000000
      9        -11.908260   1.000000
     10        -10.937239   1.000000
     11        -10.549762   1.000000
     12        -10.358947   1.000000
     13         -9.852367   1.000000
     14         -9.581628   1.000000
     15         -8.718337   1.000000
     16         -8.418124   1.000000
     17         -8.319498   1.000000
     18         -7.931918   1.000000
     19         -7.602785   1.000000
     20         -7.456825   1.000000
     21         -6.108534   1.000000
     22         -0.889642   0.000000
     23         -0.658301   0.000000
     24         -0.165167   0.000000
     25         -0.090662   0.000000
     26         -0.023334   0.000000
     27          0.037972   0.000000
     28          0.165229   0.000000
     29          0.372853   0.000000
     30          0.463053   0.000000
