 vasp.6.3.2 27Jun22 (build Oct 05 2023 17:59:42) gamma-only                     
  
 executed on             LinuxIFC date 2024.04.05  18:28:44
 running on   18 total cores
 each image running on    2 cores
 distrk:  each k-point on    2 cores,    1 groups
 distr:  one band on NCORE=   1 cores,    2 groups


--------------------------------------------------------------------------------------------------------


 INCAR:
   ENCUT = 400.000000
   SIGMA = 0.050000
   ALGO = Fast
   GGA = PE
   ISMEAR = 0
   ISPIN = 1
   IVDW = 11
   LCHARG = .FALSE.
   LWAVE = .FALSE.
   EDIFF = 1E-05
   EDIFFG = -0.05
   NSW = 5000
   IBRION = 1
   SPRING = -5
   POTIM = 0.1
   PREC = NORMAL
   IMAGES = 9
   LCLIMB = .TRUE.

 POTCAR:    PAW_PBE C 08Apr2002                   
 POTCAR:    PAW_PBE H 15Jun2001                   
 POTCAR:    PAW_PBE N 08Apr2002                   
 POTCAR:    PAW_PBE C 08Apr2002                   
   SHA256 =  253f7b50bb8d59471dbedb8285d89021f4a42ed1a2c5d38a03a736e69125dd95 C/POTCAR              
   COPYR  = (c) Copyright 08Apr2002 Georg Kresse                                                    
   COPYR  = This file is part of the software VASP. Any use, copying, and all other rights are regul
   COPYR  = If you do not have a valid VASP license, you may not use, copy or distribute this file. 
   VRHFIN =C: s2p2                                                                                  
   LEXCH  = PE                                                                                      
   EATOM  =   147.1560 eV,   10.8157 Ry                                                             
                                                                                                    
   TITEL  = PAW_PBE C 08Apr2002                                                                     
   LULTRA =        F    use ultrasoft PP ?                                                          
   IUNSCR =        1    unscreen: 0-lin 1-nonlin 2-no                                               
   RPACOR =    1.200    partial core radius                                                         
   POMASS =   12.011; ZVAL   =    4.000    mass and valenz                                          
   RCORE  =    1.500    outmost cutoff radius                                                       
   RWIGS  =    1.630; RWIGS  =    0.863    wigner-seitz radius (au A)                               
   ENMAX  =  400.000; ENMIN  =  300.000 eV                                                          
   ICORE  =        2    local potential                                                             
   LCOR   =        T    correct aug charges                                                         
   LPAW   =        T    paw PP                                                                      
   EAUG   =  644.873                                                                                
   DEXC   =    0.000                                                                                
   RMAX   =    1.529    core radius for proj-oper                                                   
   RAUG   =    1.300    factor for augmentation sphere                                              
   RDEP   =    1.501    radius for radial grids                                                     
   RDEPT  =    1.300    core radius for aug-charge                                                  
                                                                                                    
   Atomic configuration                                                                             
    4 entries                                                                                       
     n  l   j            E        occ.                                                              
     1  0  0.50      -273.3789   2.0000                                                             
     2  0  0.50       -13.7508   2.0000                                                             
     2  1  0.50        -5.2854   2.0000                                                             
     3  2  1.50        -5.4423   0.0000                                                             
   Description                                                                                      
     l       E           TYP  RCUT    TYP  RCUT                                                     
     0    -13.7508458     23  1.200                                                                 
     0     -8.2022199     23  1.200                                                                 
     1     -5.2854383     23  1.500                                                                 
     1     34.0145650     23  1.500                                                                 
     2     -5.4423304      7  1.500                                                                 
  local pseudopotential read in
  partial core-charges read in
  partial kinetic energy density read in
  atomic valenz-charges read in
  non local Contribution for L=           0  read in
    real space projection operators read in
  non local Contribution for L=           0  read in
    real space projection operators read in
  non local Contribution for L=           1  read in
    real space projection operators read in
  non local Contribution for L=           1  read in
    real space projection operators read in
    PAW grid and wavefunctions read in
 
   number of l-projection  operators is LMAX  =           4
   number of lm-projection operators is LMMAX =           8
 
 POTCAR:    PAW_PBE H 15Jun2001                   
   SHA256 =  030f79b5d3ab3cf0e668861823c8fb652ff669f3e15e46930bd03bfd63a607b6 H/POTCAR              
   COPYR  = (c) Copyright 15Jun2001 Georg Kresse                                                    
   COPYR  = This file is part of the software VASP. Any use, copying, and all other rights are regul
   COPYR  = If you do not have a valid VASP license, you may not use, copy or distribute this file. 
   VRHFIN =H: ultrasoft test                                                                        
   LEXCH  = PE                                                                                      
   EATOM  =    12.4884 eV,    0.9179 Ry                                                             
                                                                                                    
   TITEL  = PAW_PBE H 15Jun2001                                                                     
   LULTRA =        F    use ultrasoft PP ?                                                          
   IUNSCR =        0    unscreen: 0-lin 1-nonlin 2-no                                               
   RPACOR =    0.000    partial core radius                                                         
   POMASS =    1.000; ZVAL   =    1.000    mass and valenz                                          
   RCORE  =    1.100    outmost cutoff radius                                                       
   RWIGS  =    0.700; RWIGS  =    0.370    wigner-seitz radius (au A)                               
   ENMAX  =  250.000; ENMIN  =  200.000 eV                                                          
   RCLOC  =    0.701    cutoff for local pot                                                        
   LCOR   =        T    correct aug charges                                                         
   LPAW   =        T    paw PP                                                                      
   EAUG   =  400.000                                                                                
   RMAX   =    1.123    core radius for proj-oper                                                   
   RAUG   =    1.200    factor for augmentation sphere                                              
   RDEP   =    1.112    radius for radial grids                                                     
   RDEPT  =    0.926    core radius for aug-charge                                                  
                                                                                                    
   Atomic configuration                                                                             
    2 entries                                                                                       
     n  l   j            E        occ.                                                              
     1  0  0.50        -6.4927   1.0000                                                             
     2  1  0.50        -3.4015   0.0000                                                             
   Description                                                                                      
     l       E           TYP  RCUT    TYP  RCUT                                                     
     0     -6.4927494     23  1.100                                                                 
     0      6.8029130     23  1.100                                                                 
     1     -4.0817478     23  1.100                                                                 
  local pseudopotential read in
  atomic valenz-charges read in
  non local Contribution for L=           0  read in
    real space projection operators read in
  non local Contribution for L=           0  read in
    real space projection operators read in
  non local Contribution for L=           1  read in
    real space projection operators read in
    PAW grid and wavefunctions read in
 
   number of l-projection  operators is LMAX  =           3
   number of lm-projection operators is LMMAX =           5
 
 POTCAR:    PAW_PBE N 08Apr2002                   
   SHA256 =  e053789ff3a61a86a1b75d8a110fcc91f86041011e7b0817c7c99e4e8a6349d7 N/POTCAR              
   COPYR  = (c) Copyright 08Apr2002 Georg Kresse                                                    
   COPYR  = This file is part of the software VASP. Any use, copying, and all other rights are regul
   COPYR  = If you do not have a valid VASP license, you may not use, copy or distribute this file. 
   VRHFIN =N: s2p3                                                                                  
   LEXCH  = PE                                                                                      
   EATOM  =   264.5486 eV,   19.4438 Ry                                                             
                                                                                                    
   TITEL  = PAW_PBE N 08Apr2002                                                                     
   LULTRA =        F    use ultrasoft PP ?                                                          
   IUNSCR =        1    unscreen: 0-lin 1-nonlin 2-no                                               
   RPACOR =    1.200    partial core radius                                                         
   POMASS =   14.001; ZVAL   =    5.000    mass and valenz                                          
   RCORE  =    1.500    outmost cutoff radius                                                       
   RWIGS  =    1.400; RWIGS  =    0.741    wigner-seitz radius (au A)                               
   ENMAX  =  400.000; ENMIN  =  300.000 eV                                                          
   ICORE  =        2    local potential                                                             
   LCOR   =        T    correct aug charges                                                         
   LPAW   =        T    paw PP                                                                      
   EAUG   =  627.112                                                                                
   DEXC   =    0.000                                                                                
   RMAX   =    1.529    core radius for proj-oper                                                   
   RAUG   =    1.300    factor for augmentation sphere                                              
   RDEP   =    1.514    radius for radial grids                                                     
   RDEPT  =    1.338    core radius for aug-charge                                                  
                                                                                                    
   Atomic configuration                                                                             
    4 entries                                                                                       
     n  l   j            E        occ.                                                              
     1  0  0.50      -384.7179   2.0000                                                             
     2  0  0.50       -18.5828   2.0000                                                             
     2  1  0.50        -7.0898   3.0000                                                             
     3  2  1.50        -6.8029   0.0000                                                             
   Description                                                                                      
     l       E           TYP  RCUT    TYP  RCUT                                                     
     0    -18.5828119     23  1.200                                                                 
     0    -13.5018863     23  1.200                                                                 
     1     -7.0897853     23  1.500                                                                 
     1      9.5240782     23  1.500                                                                 
     2     -6.8029130      7  1.500                                                                 
  local pseudopotential read in
  partial core-charges read in
  partial kinetic energy density read in
  atomic valenz-charges read in
  non local Contribution for L=           0  read in
    real space projection operators read in
  non local Contribution for L=           0  read in
    real space projection operators read in
  non local Contribution for L=           1  read in
    real space projection operators read in
  non local Contribution for L=           1  read in
    real space projection operators read in
    PAW grid and wavefunctions read in
 
   number of l-projection  operators is LMAX  =           4
   number of lm-projection operators is LMMAX =           8
 
 -----------------------------------------------------------------------------
|                                                                             |
|               ----> ADVICE to this user running VASP <----                  |
|                                                                             |
|     You have a (more or less) 'large supercell' and for larger cells it     |
|     might be more efficient to use real-space projection operators.         |
|     Therefore, try LREAL= Auto in the INCAR file.                           |
|     Mind: For very accurate calculation, you might also keep the            |
|     reciprocal projection scheme (i.e. LREAL=.FALSE.).                      |
|                                                                             |
 -----------------------------------------------------------------------------

  PAW_PBE C 08Apr2002                   :
 energy of atom  1       EATOM= -147.1560
 kinetic energy error for atom=    0.0288 (will be added to EATOM!!)
  PAW_PBE H 15Jun2001                   :
 energy of atom  2       EATOM=  -12.4884
 kinetic energy error for atom=    0.0098 (will be added to EATOM!!)
  PAW_PBE N 08Apr2002                   :
 energy of atom  3       EATOM= -264.5486
 kinetic energy error for atom=    0.0736 (will be added to EATOM!!)
 
 
 POSCAR:  C  H  N
  positions in cartesian coordinates
  No initial velocities read in
 exchange correlation table for  LEXCH =        8
   RHO(1)=    0.500       N(1)  =     2000
   RHO(2)=  100.500       N(2)  =     4000

 VTST: version 4.1, (05/19/21)

 CHAIN: initializing optimizer
 
 OPT: Using VASP QUASI-newton optimizer
 CHAIN: Read ICHAIN            0
 CHAIN: Running the NEB
 NEB:          SPRING     -5.000000
 NEB:          LCLIMB      T
 NEB:     LTANGENTOLD      F
 NEB:           LDNEB      F
 NEB:        LDNEBORG      F
 NEB:        LNEBCELL      F
 NEB:          EFIRST      0.000000
 NEB:           ELAST      0.000000
 
 POSCAR:  C  H  N
  positions in cartesian coordinates
  No initial velocities read in
 
 POSCAR:  C  H  N
  positions in cartesian coordinates
  No initial velocities read in
 
 POSCAR:  C  H  N
  positions in cartesian coordinates
  No initial velocities read in
 
 POSCAR:  C  H  N
  positions in cartesian coordinates
  No initial velocities read in
 


--------------------------------------------------------------------------------------------------------


 ion  position               nearest neighbor table
   1  0.336  0.442  0.567-   8 1.09   2 1.34   4 1.49
   2  0.336  0.528  0.573-  11 1.09   1 1.34   3 1.49
   3  0.416  0.580  0.556-  13 1.09  12 1.10   2 1.49   6 1.54
   4  0.414  0.391  0.540-  10 1.09   9 1.10   1 1.49   5 1.54
   5  0.493  0.445  0.512-  15 1.09  14 1.10   6 1.52   4 1.54
   6  0.470  0.537  0.484-  16 1.09   7 1.45   5 1.52   3 1.54
   7  0.547  0.587  0.464-  17 1.17   6 1.45
   8  0.278  0.404  0.581-   1 1.09
   9  0.435  0.348  0.593-   4 1.10
  10  0.396  0.346  0.488-   4 1.09
  11  0.276  0.562  0.591-   2 1.09
  12  0.458  0.584  0.613-   3 1.10
  13  0.400  0.647  0.539-   3 1.09
  14  0.528  0.412  0.459-   5 1.10
  15  0.539  0.450  0.566-   5 1.09
  16  0.430  0.534  0.425-   6 1.09
  17  0.610  0.626  0.451-   7 1.17
 
  LATTYP: Found a simple cubic cell.
 ALAT       =    15.4022502899
  
  Lattice vectors:
  
 A1 = (  15.4022502899,   0.0000000000,   0.0000000000)
 A2 = (   0.0000000000,  15.4022502899,   0.0000000000)
 A3 = (   0.0000000000,   0.0000000000,  15.4022502899)


Analysis of symmetry for initial positions (statically):
=====================================================================
 Subroutine PRICEL returns:
 Original cell was already a primitive cell.
 

 Routine SETGRP: Setting up the symmetry group for a 
 simple cubic supercell.


 Subroutine GETGRP returns: Found  1 space group operations
 (whereof  1 operations were pure point group operations)
 out of a pool of 48 trial point group operations.


The static configuration has the point symmetry C_1 .


Analysis of symmetry for dynamics (positions and initial velocities):
=====================================================================
 Subroutine PRICEL returns:
 Original cell was already a primitive cell.
 

 Routine SETGRP: Setting up the symmetry group for a 
 simple cubic supercell.


 Subroutine GETGRP returns: Found  1 space group operations
 (whereof  1 operations were pure point group operations)
 out of a pool of 48 trial point group operations.


The dynamic configuration has the point symmetry C_1 .


 Subroutine INISYM returns: Found  1 space group operations
 (whereof  1 operations are pure point group operations),
 and found     1 'primitive' translations


----------------------------------------------------------------------------------------

                                     Primitive cell                                     

  volume of cell :    3653.8653

  direct lattice vectors                    reciprocal lattice vectors
    15.402250290  0.000000000  0.000000000     0.064925578  0.000000000  0.000000000
     0.000000000 15.402250290  0.000000000     0.000000000  0.064925578  0.000000000
     0.000000000  0.000000000 15.402250290     0.000000000  0.000000000  0.064925578

  length of vectors
    15.402250290 15.402250290 15.402250290     0.064925578  0.064925578  0.064925578

  position of ions in fractional coordinates (direct lattice)
     0.336405214  0.441636290  0.566555817
     0.335912246  0.528322799  0.572982617
     0.415574169  0.580386504  0.555984769
     0.414150938  0.390540519  0.540093582
     0.493322744  0.444619948  0.511691898
     0.469502445  0.536640887  0.484062041
     0.546974017  0.586616099  0.464400707
     0.278233984  0.403958094  0.580504519
     0.435264096  0.347860987  0.593192583
     0.395804181  0.345744329  0.488036301
     0.276460878  0.562000732  0.590971833
     0.458153478  0.584198603  0.612866033
     0.399509134  0.647481144  0.538944034
     0.528383577  0.411564136  0.459362948
     0.538834737  0.450101002  0.565661840
     0.429709462  0.533603746  0.425237487
     0.610367480  0.625832183  0.451152785

  ion indices of the primitive-cell ions
   primitive index   ion index
                 1           1
                 2           2
                 3           3
                 4           4
                 5           5
                 6           6
                 7           7
                 8           8
                 9           9
                10          10
                11          11
                12          12
                13          13
                14          14
                15          15
                16          16
                17          17

----------------------------------------------------------------------------------------

 
 
 KPOINTS: KPOINTS created by Atomic Simulation Env

Automatic generation of k-mesh.
 Grid dimensions read from file:
 generate k-points for:    1    1    1

 Generating k-lattice:

  Cartesian coordinates                     Fractional coordinates (reciprocal lattice)
     0.064925578  0.000000000  0.000000000     1.000000000  0.000000000  0.000000000
     0.000000000  0.064925578  0.000000000     0.000000000  1.000000000  0.000000000
     0.000000000  0.000000000  0.064925578     0.000000000  0.000000000  1.000000000

  Length of vectors
     0.064925578  0.064925578  0.064925578

  Shift w.r.t. Gamma in fractional coordinates (k-lattice)
     0.000000000  0.000000000  0.000000000

 
 Subroutine IBZKPT returns following result:
 ===========================================
 
 Found      1 irreducible k-points:
 
 Following reciprocal coordinates:
            Coordinates               Weight
  0.000000  0.000000  0.000000      1.000000
 
 Following cartesian coordinates:
            Coordinates               Weight
  0.000000  0.000000  0.000000      1.000000
 


--------------------------------------------------------------------------------------------------------




 Dimension of arrays:
   k-points           NKPTS =      1   k-points in BZ     NKDIM =      1   number of bands    NBANDS=     30
   number of dos      NEDOS =    301   number of ions     NIONS =     17
   non local maximal  LDIM  =      4   non local SUM 2l+1 LMDIM =      8
   total plane-waves  NPLWV = 512000
   max r-space proj   IRMAX =      1   max aug-charges    IRDMAX=   1924
   dimension x,y,z NGX =    80 NGY =   80 NGZ =   80
   dimension x,y,z NGXF=   160 NGYF=  160 NGZF=  160
   support grid    NGXF=   160 NGYF=  160 NGZF=  160
   ions per type =               7   9   1
   NGX,Y,Z   is equivalent  to a cutoff of   8.63,  8.63,  8.63 a.u.
   NGXF,Y,Z  is equivalent  to a cutoff of  17.27, 17.27, 17.27 a.u.

 SYSTEM =  unknown system                          
 POSCAR =   C  H  N                                

 Startparameter for this run:
   NWRITE =      2    write-flag & timer
   PREC   = normal    normal or accurate (medium, high low for compatibility)
   ISTART =      0    job   : 0-new  1-cont  2-samecut
   ICHARG =      2    charge: 1-file 2-atom 10-const
   ISPIN  =      1    spin polarized calculation?
   LNONCOLLINEAR =      F non collinear calculations
   LSORBIT =      F    spin-orbit coupling
   INIWAV =      1    electr: 0-lowe 1-rand  2-diag
   LASPH  =      F    aspherical Exc in radial PAW
 Electronic Relaxation 1
   ENCUT  =  400.0 eV  29.40 Ry    5.42 a.u.  25.12 25.12 25.12*2*pi/ulx,y,z
   ENINI  =  400.0     initial cutoff
   ENAUG  =  644.9 eV  augmentation charge cutoff
   NELM   =     60;   NELMIN=  2; NELMDL= -5     # of ELM steps 
   EDIFF  = 0.1E-04   stopping-criterion for ELM
   LREAL  =      F    real-space projection
   NLSPLINE    = F    spline interpolate recip. space projectors
   LCOMPAT=      F    compatible to vasp.4.4
   GGA_COMPAT  = T    GGA compatible to vasp.4.4-vasp.4.6
   LMAXPAW     = -100 max onsite density
   LMAXMIX     =    2 max onsite mixed and CHGCAR
   VOSKOWN=      0    Vosko Wilk Nusair interpolation
   ROPT   =    0.00000   0.00000   0.00000
 Ionic relaxation
   EDIFFG = -.5E-01   stopping-criterion for IOM
   NSW    =   5000    number of steps for IOM
   NBLOCK =      1;   KBLOCK =   5000    inner block; outer block 
   IBRION =      1    ionic relax: 0-MD 1-quasi-New 2-CG
   NFREE  =      0    steps in history (QN), initial steepest desc. (CG)
   ISIF   =      2    stress and relaxation
   IWAVPR =     11    prediction:  0-non 1-charg 2-wave 3-comb
   ISYM   =      2    0-nonsym 1-usesym 2-fastsym
   LCORR  =      T    Harris-Foulkes like correction to forces

   POTIM  = 0.1000    time-step for ionic-motion
   TEIN   =    0.0    initial temperature
   TEBEG  =    0.0;   TEEND  =   0.0 temperature during run
   SMASS  =  -3.00    Nose mass-parameter (am)
   estimated Nose-frequenzy (Omega)   =  0.10E-29 period in steps = 0.63E+47 mass=  -0.542E-26a.u.
   SCALEE = 1.0000    scale energy and forces
   NPACO  =    256;   APACO  = 10.0  distance and # of slots for P.C.
   PSTRESS=    0.0 pullay stress

  Mass of Ions in am
   POMASS =  12.01  1.00 14.00
  Ionic Valenz
   ZVAL   =   4.00  1.00  5.00
  Atomic Wigner-Seitz radii
   RWIGS  =  -1.00 -1.00 -1.00
  virtual crystal weights 
   VCA    =   1.00  1.00  1.00
   NELECT =      42.0000    total number of electrons
   NUPDOWN=      -1.0000    fix difference up-down

 DOS related values:
   EMIN   =  10.00;   EMAX   =-10.00  energy-range for DOS
   EFERMI =   0.00
   ISMEAR =     0;   SIGMA  =   0.05  broadening in eV -4-tet -1-fermi 0-gaus

 Electronic relaxation 2 (details)
   IALGO  =     68    algorithm
   LDIAG  =      T    sub-space diagonalisation (order eigenvalues)
   LSUBROT=      F    optimize rotation matrix (better conditioning)
   TURBO    =      0    0=normal 1=particle mesh
   IRESTART =      0    0=no restart 2=restart with 2 vectors
   NREBOOT  =      0    no. of reboots
   NMIN     =      0    reboot dimension
   EREF     =   0.00    reference energy to select bands
   IMIX   =      4    mixing-type and parameters
     AMIX     =   0.40;   BMIX     =  1.00
     AMIX_MAG =   1.60;   BMIX_MAG =  1.00
     AMIN     =   0.10
     WC   =   100.;   INIMIX=   1;  MIXPRE=   1;  MAXMIX= -45

 Intra band minimization:
   WEIMIN = 0.0010     energy-eigenvalue tresh-hold
   EBREAK =  0.83E-07  absolut break condition
   DEPER  =   0.30     relativ break condition  

   TIME   =   0.40     timestep for ELM

  volume/ion in A,a.u.               =     214.93      1450.44
  Fermi-wavevector in a.u.,A,eV,Ry     =   0.369465  0.698188  1.857259  0.136505
  Thomas-Fermi vector in A             =   1.296107
 
 Write flags
   LWAVE        =      F    write WAVECAR
   LDOWNSAMPLE  =      F    k-point downsampling of WAVECAR
   LCHARG       =      F    write CHGCAR
   LVTOT        =      F    write LOCPOT, total local potential
   LVHAR        =      F    write LOCPOT, Hartree potential only
   LELF         =      F    write electronic localiz. function (ELF)
   LORBIT       =      0    0 simple, 1 ext, 2 COOP (PROOUT), +10 PAW based schemes


 Dipole corrections
   LMONO  =      F    monopole corrections only (constant potential shift)
   LDIPOL =      F    correct potential (dipole corrections)
   IDIPOL =      0    1-x, 2-y, 3-z, 4-all directions 
   EPSILON=  1.0000000 bulk dielectric constant

 Exchange correlation treatment:
   GGA     =    PE    GGA type
   LEXCH   =     8    internal setting for exchange type
   LIBXC   =     F    Libxc                    
   VOSKOWN =     0    Vosko Wilk Nusair interpolation
   LHFCALC =     F    Hartree Fock is set to
   LHFONE  =     F    Hartree Fock one center treatment
   AEXX    =    0.0000 exact exchange contribution

 Linear response parameters
   LEPSILON=     F    determine dielectric tensor
   LRPA    =     F    only Hartree local field effects (RPA)
   LNABLA  =     F    use nabla operator in PAW spheres
   LVEL    =     F    velocity operator in full k-point grid
   CSHIFT  =0.1000    complex shift for real part using Kramers Kronig
   OMEGAMAX=  -1.0    maximum frequency
   DEG_THRESHOLD= 0.2000000E-02 threshold for treating states as degnerate
   RTIME   =   -0.100 relaxation time in fs
  (WPLASMAI=    0.000 imaginary part of plasma frequency in eV, 0.658/RTIME)
   DFIELD  = 0.0000000 0.0000000 0.0000000 field for delta impulse in time
 
  Optional k-point grid parameters
   LKPOINTS_OPT  =     F    use optional k-point grid
   KPOINTS_OPT_MODE=     1    mode for optional k-point grid
 
 Orbital magnetization related:
   ORBITALMAG=     F  switch on orbital magnetization
   LCHIMAG   =     F  perturbation theory with respect to B field
   DQ        =  0.001000  dq finite difference perturbation B field
   LLRAUG    =     F  two centre corrections for induced B field



--------------------------------------------------------------------------------------------------------


 quasi-Newton-method for relaxation of ions
 charge density and potential will be updated during run
 non-spin polarized calculation
 RMM-DIIS sequential band-by-band and
  variant of blocked Davidson during initial phase
 perform sub-space diagonalisation
    before iterative eigenvector-optimisation
 modified Broyden-mixing scheme, WC =      100.0
 initial mixing is a Kerker type mixing with AMIX =  0.4000 and BMIX =      1.0000
 Hartree-type preconditioning will be used
 using additional bands            9
 reciprocal scheme for non local part
 use partial core corrections
 calculate Harris-corrections to forces 
   (improved forces if not selfconsistent)
 use gradient corrections 
 use of overlap-Matrix (Vanderbilt PP)
 Gauss-broadening in eV      SIGMA  =   0.05


--------------------------------------------------------------------------------------------------------


  energy-cutoff  :      400.00
  volume of cell :     3653.87
      direct lattice vectors                 reciprocal lattice vectors
    15.402250290  0.000000000  0.000000000     0.064925578  0.000000000  0.000000000
     0.000000000 15.402250290  0.000000000     0.000000000  0.064925578  0.000000000
     0.000000000  0.000000000 15.402250290     0.000000000  0.000000000  0.064925578

  length of vectors
    15.402250290 15.402250290 15.402250290     0.064925578  0.064925578  0.064925578


 
 k-points in units of 2pi/SCALE and weight: KPOINTS created by Atomic Simulation Env
   0.00000000  0.00000000  0.00000000       1.000
 
 k-points in reciprocal lattice and weights: KPOINTS created by Atomic Simulation Env
   0.00000000  0.00000000  0.00000000       1.000
 
 position of ions in fractional coordinates (direct lattice) 
   0.33640521  0.44163629  0.56655582
   0.33591225  0.52832280  0.57298262
   0.41557417  0.58038650  0.55598477
   0.41415094  0.39054052  0.54009358
   0.49332274  0.44461995  0.51169190
   0.46950244  0.53664089  0.48406204
   0.54697402  0.58661610  0.46440071
   0.27823398  0.40395809  0.58050452
   0.43526410  0.34786099  0.59319258
   0.39580418  0.34574433  0.48803630
   0.27646088  0.56200073  0.59097183
   0.45815348  0.58419860  0.61286603
   0.39950913  0.64748114  0.53894403
   0.52838358  0.41156414  0.45936295
   0.53883474  0.45010100  0.56566184
   0.42970946  0.53360375  0.42523749
   0.61036748  0.62583218  0.45115279
 
 position of ions in cartesian coordinates  (Angst):
   5.18139730  6.80219267  8.72623450
   5.17380449  8.13735998  8.82522167
   6.40077736  8.93925819  8.56341658
   6.37885640  6.01520282  8.31865652
   7.59828038  6.84814773  7.88120668
   7.23139417  8.26547726  7.45564470
   8.42463071  9.03520798  7.15281593
   4.28542946  6.22186367  8.94107589
   6.70404655  5.35784198  9.13650063
   6.09627506  5.32524069  7.51685726
   4.25811964  8.65607593  9.10229609
   7.05659454  8.99797310  9.43951604
   6.15333968  9.97266663  8.30095090
   8.13829610  6.33901383  7.07522310
   8.29926748  6.93256829  8.71246524
   6.61849268  8.21869845  6.54961421
   9.40103269  9.63922392  6.94876812
 


--------------------------------------------------------------------------------------------------------


 use serial FFT for orbitals x direction half grid
 k-point   1 :   0.0000 0.0000 0.0000  plane waves:   33270

 maximum and minimum number of plane-waves per node :     33270    33270

 maximum number of plane-waves:     33270
 maximum index in each direction: 
   IXMAX=   25   IYMAX=   25   IZMAX=   25
   IXMIN=    0   IYMIN=  -25   IZMIN=  -25


 serial   3D FFT for wavefunctions
 parallel 3D FFT for charge:
    minimum data exchange during FFTs selected (reduces bandwidth)


 total amount of memory used by VASP MPI-rank0   277942. kBytes
=======================================================================

   base      :      30000. kBytes
   nonl-proj :      15437. kBytes
   fftplans  :      71598. kBytes
   grid      :     152883. kBytes
   one-center:         26. kBytes
   wavefun   :       7998. kBytes
 
     INWAV:  cpu time      0.0000: real time      0.0000
 Broyden mixing: mesh for mixing (old mesh)
   NGX = 51   NGY = 51   NGZ = 51
  (NGX  =160   NGY  =160   NGZ  =160)
  gives a total of 132651 points

 initial charge density was supplied:
 charge density of overlapping atoms calculated
 number of electron      42.0000000 magnetization 
 keeping initial charge density in first step


--------------------------------------------------------------------------------------------------------


 Maximum index for augmentation-charges          836 (set IRDMAX)


--------------------------------------------------------------------------------------------------------


 First call to EWALD:  gamma=   0.115
 Maximum number of real-space cells 3x 3x 3
 Maximum number of reciprocal cells 3x 3x 3

    FEWALD:  cpu time      0.0009: real time      0.0009


--------------------------------------- Iteration      1(   1)  ---------------------------------------


    POTLOK:  cpu time      1.5407: real time      1.5408
    SETDIJ:  cpu time      0.0097: real time      0.0097
     EDDAV:  cpu time      2.0524: real time      2.0670
       DOS:  cpu time      0.0003: real time      0.0005
    --------------------------------------------
      LOOP:  cpu time      3.6031: real time      3.6180

 eigenvalue-minimisations  :    76
 total energy-change (2. order) : 0.3403580E+03  (-0.1013821E+04)
 number of electron      42.0000000 magnetization 
 augmentation part       42.0000000 magnetization 

 Free energy of the ion-electron system (eV)
  ---------------------------------------------------
  alpha Z        PSCENC =         2.15216506
  Ewald energy   TEWEN  =      2577.97445541
  -Hartree energ DENC   =     -3513.75746990
  -exchange      EXHF   =         0.00000000
  -V(xc)+E(xc)   XCENC  =       131.51533650
  PAW double counting   =       983.79330320     -989.05002801
  entropy T*S    EENTRO =        -0.05290716
  eigenvalues    EBANDS =      -258.89007255
  atomic energy  EATOM  =      1406.67326350
  Solvation  Ediel_sol  =         0.00000000
  ---------------------------------------------------
  free energy    TOTEN  =       340.35804605 eV

  energy without entropy =      340.41095322  energy(sigma->0) =      340.38449963


--------------------------------------------------------------------------------------------------------




--------------------------------------- Iteration      1(   2)  ---------------------------------------


     EDDAV:  cpu time      2.6967: real time      2.6970
       DOS:  cpu time      0.0002: real time      0.0002
    --------------------------------------------
      LOOP:  cpu time      2.6969: real time      2.6971

 eigenvalue-minimisations  :    96
 total energy-change (2. order) :-0.2813073E+03  (-0.2697471E+03)
 number of electron      42.0000000 magnetization 
 augmentation part       42.0000000 magnetization 

 Free energy of the ion-electron system (eV)
  ---------------------------------------------------
  alpha Z        PSCENC =         2.15216506
  Ewald energy   TEWEN  =      2577.97445541
  -Hartree energ DENC   =     -3513.75746990
  -exchange      EXHF   =         0.00000000
  -V(xc)+E(xc)   XCENC  =       131.51533650
  PAW double counting   =       983.79330320     -989.05002801
  entropy T*S    EENTRO =        -0.00000000
  eigenvalues    EBANDS =      -540.25031403
  atomic energy  EATOM  =      1406.67326350
  Solvation  Ediel_sol  =         0.00000000
  ---------------------------------------------------
  free energy    TOTEN  =        59.05071174 eV

  energy without entropy =       59.05071174  energy(sigma->0) =       59.05071174


--------------------------------------------------------------------------------------------------------




--------------------------------------- Iteration      1(   3)  ---------------------------------------


     EDDAV:  cpu time      1.6767: real time      1.6769
       DOS:  cpu time      0.0003: real time      0.0003
    --------------------------------------------
      LOOP:  cpu time      1.6770: real time      1.6772

 eigenvalue-minimisations  :    72
 total energy-change (2. order) :-0.1522864E+03  (-0.1517425E+03)
 number of electron      42.0000000 magnetization 
 augmentation part       42.0000000 magnetization 

 Free energy of the ion-electron system (eV)
  ---------------------------------------------------
  alpha Z        PSCENC =         2.15216506
  Ewald energy   TEWEN  =      2577.97445541
  -Hartree energ DENC   =     -3513.75746990
  -exchange      EXHF   =         0.00000000
  -V(xc)+E(xc)   XCENC  =       131.51533650
  PAW double counting   =       983.79330320     -989.05002801
  entropy T*S    EENTRO =        -0.00000000
  eigenvalues    EBANDS =      -692.53668287
  atomic energy  EATOM  =      1406.67326350
  Solvation  Ediel_sol  =         0.00000000
  ---------------------------------------------------
  free energy    TOTEN  =       -93.23565710 eV

  energy without entropy =      -93.23565710  energy(sigma->0) =      -93.23565710


--------------------------------------------------------------------------------------------------------




--------------------------------------- Iteration      1(   4)  ---------------------------------------


     EDDAV:  cpu time      3.7134: real time      3.7138
       DOS:  cpu time      0.0003: real time      0.0004
    --------------------------------------------
      LOOP:  cpu time      3.7137: real time      3.7143

 eigenvalue-minimisations  :    88
 total energy-change (2. order) :-0.2075493E+02  (-0.2072054E+02)
 number of electron      42.0000000 magnetization 
 augmentation part       42.0000000 magnetization 

 Free energy of the ion-electron system (eV)
  ---------------------------------------------------
  alpha Z        PSCENC =         2.15216506
  Ewald energy   TEWEN  =      2577.97445541
  -Hartree energ DENC   =     -3513.75746990
  -exchange      EXHF   =         0.00000000
  -V(xc)+E(xc)   XCENC  =       131.51533650
  PAW double counting   =       983.79330320     -989.05002801
  entropy T*S    EENTRO =        -0.00000000
  eigenvalues    EBANDS =      -713.29160834
  atomic energy  EATOM  =      1406.67326350
  Solvation  Ediel_sol  =         0.00000000
  ---------------------------------------------------
  free energy    TOTEN  =      -113.99058257 eV

  energy without entropy =     -113.99058257  energy(sigma->0) =     -113.99058257


--------------------------------------------------------------------------------------------------------




--------------------------------------- Iteration      1(   5)  ---------------------------------------


     EDDAV:  cpu time      3.2682: real time      3.3086
       DOS:  cpu time      0.0004: real time      0.0004
    CHARGE:  cpu time      0.4177: real time      0.4178
    MIXING:  cpu time      0.0630: real time      0.0630
    --------------------------------------------
      LOOP:  cpu time      3.7494: real time      3.7899

 eigenvalue-minimisations  :    80
 total energy-change (2. order) :-0.2599999E+00  (-0.2587549E+00)
 number of electron      41.9999998 magnetization 
 augmentation part        1.2124920 magnetization 

 Broyden mixing:
  rms(total) = 0.16966E+01    rms(broyden)= 0.16961E+01
  rms(prec ) = 0.19592E+01
  weight for this iteration     100.00

 Free energy of the ion-electron system (eV)
  ---------------------------------------------------
  alpha Z        PSCENC =         2.15216506
  Ewald energy   TEWEN  =      2577.97445541
  -Hartree energ DENC   =     -3513.75746990
  -exchange      EXHF   =         0.00000000
  -V(xc)+E(xc)   XCENC  =       131.51533650
  PAW double counting   =       983.79330320     -989.05002801
  entropy T*S    EENTRO =        -0.00000000
  eigenvalues    EBANDS =      -713.55160821
  atomic energy  EATOM  =      1406.67326350
  Solvation  Ediel_sol  =         0.00000000
  ---------------------------------------------------
  free energy    TOTEN  =      -114.25058245 eV

  energy without entropy =     -114.25058245  energy(sigma->0) =     -114.25058245


--------------------------------------------------------------------------------------------------------




--------------------------------------- Iteration      1(   6)  ---------------------------------------


    POTLOK:  cpu time      2.0621: real time      2.0629
    SETDIJ:  cpu time      0.0265: real time      0.0265
    EDDIAG:  cpu time      0.4647: real time      0.4649
  RMM-DIIS:  cpu time      2.8686: real time      2.8688
    ORTHCH:  cpu time      0.0253: real time      0.0254
       DOS:  cpu time      0.0003: real time      0.0003
    CHARGE:  cpu time      0.3614: real time      0.3614
    MIXING:  cpu time      0.0979: real time      0.0979
    --------------------------------------------
      LOOP:  cpu time      5.9068: real time      5.9081

 eigenvalue-minimisations  :    60
 total energy-change (2. order) : 0.8434767E+01  (-0.1143226E+01)
 number of electron      41.9999996 magnetization 
 augmentation part        1.1193998 magnetization 

 Broyden mixing:
  rms(total) = 0.92500E+00    rms(broyden)= 0.92489E+00
  rms(prec ) = 0.10495E+01
  weight for this iteration     100.00

 eigenvalues of (default mixing * dielectric matrix)
  average eigenvalue GAMMA=   1.6718
  1.6718

 Free energy of the ion-electron system (eV)
  ---------------------------------------------------
  alpha Z        PSCENC =         2.15216506
  Ewald energy   TEWEN  =      2577.97445541
  -Hartree energ DENC   =     -3597.18623432
  -exchange      EXHF   =         0.00000000
  -V(xc)+E(xc)   XCENC  =       135.60153174
  PAW double counting   =      1779.41121913    -1785.47298670
  entropy T*S    EENTRO =        -0.00000000
  eigenvalues    EBANDS =      -624.96922947
  atomic energy  EATOM  =      1406.67326350
  Solvation  Ediel_sol  =         0.00000000
  ---------------------------------------------------
  free energy    TOTEN  =      -105.81581565 eV

  energy without entropy =     -105.81581565  energy(sigma->0) =     -105.81581565


--------------------------------------------------------------------------------------------------------




--------------------------------------- Iteration      1(   7)  ---------------------------------------


    POTLOK:  cpu time      1.2916: real time      1.2918
    SETDIJ:  cpu time      0.0030: real time      0.0030
    EDDIAG:  cpu time      0.1796: real time      0.1796
  RMM-DIIS:  cpu time      1.1572: real time      1.1573
    ORTHCH:  cpu time      0.0090: real time      0.0090
       DOS:  cpu time      0.0002: real time      0.0002
    CHARGE:  cpu time      0.1755: real time      0.1755
    MIXING:  cpu time      0.0258: real time      0.0258
    --------------------------------------------
      LOOP:  cpu time      2.8419: real time      2.8422

 eigenvalue-minimisations  :    60
 total energy-change (2. order) : 0.2088883E+01  (-0.1045682E+01)
 number of electron      41.9999997 magnetization 
 augmentation part        1.0658700 magnetization 

 Broyden mixing:
  rms(total) = 0.39758E+00    rms(broyden)= 0.39739E+00
  rms(prec ) = 0.43383E+00
  weight for this iteration     100.00

 eigenvalues of (default mixing * dielectric matrix)
  average eigenvalue GAMMA=   1.4242
  0.9848  1.8635

 Free energy of the ion-electron system (eV)
  ---------------------------------------------------
  alpha Z        PSCENC =         2.15216506
  Ewald energy   TEWEN  =      2577.97445541
  -Hartree energ DENC   =     -3671.83132703
  -exchange      EXHF   =         0.00000000
  -V(xc)+E(xc)   XCENC  =       139.36642975
  PAW double counting   =      2837.54997989    -2844.10383375
  entropy T*S    EENTRO =        -0.00000000
  eigenvalues    EBANDS =      -551.50806532
  atomic energy  EATOM  =      1406.67326350
  Solvation  Ediel_sol  =         0.00000000
  ---------------------------------------------------
  free energy    TOTEN  =      -103.72693249 eV

  energy without entropy =     -103.72693249  energy(sigma->0) =     -103.72693249


--------------------------------------------------------------------------------------------------------




--------------------------------------- Iteration      1(   8)  ---------------------------------------


    POTLOK:  cpu time      1.1482: real time      1.1483
    SETDIJ:  cpu time      0.0036: real time      0.0036
    EDDIAG:  cpu time      0.2671: real time      0.2671
  RMM-DIIS:  cpu time      1.3973: real time      1.3979
    ORTHCH:  cpu time      0.0074: real time      0.0074
       DOS:  cpu time      0.0001: real time      0.0001
    CHARGE:  cpu time      0.1470: real time      0.1470
    MIXING:  cpu time      0.0314: real time      0.0314
    --------------------------------------------
      LOOP:  cpu time      3.0020: real time      3.0027

 eigenvalue-minimisations  :    60
 total energy-change (2. order) : 0.1818939E+00  (-0.7299936E-01)
 number of electron      41.9999997 magnetization 
 augmentation part        1.0527479 magnetization 

 Broyden mixing:
  rms(total) = 0.23982E+00    rms(broyden)= 0.23978E+00
  rms(prec ) = 0.26367E+00
  weight for this iteration     100.00

 eigenvalues of (default mixing * dielectric matrix)
  average eigenvalue GAMMA=   1.7817
  2.7161  1.8273  0.8017

 Free energy of the ion-electron system (eV)
  ---------------------------------------------------
  alpha Z        PSCENC =         2.15216506
  Ewald energy   TEWEN  =      2577.97445541
  -Hartree energ DENC   =     -3682.64010043
  -exchange      EXHF   =         0.00000000
  -V(xc)+E(xc)   XCENC  =       140.10254610
  PAW double counting   =      3168.12680473    -3174.62638307
  entropy T*S    EENTRO =        -0.00000000
  eigenvalues    EBANDS =      -541.30778989
  atomic energy  EATOM  =      1406.67326350
  Solvation  Ediel_sol  =         0.00000000
  ---------------------------------------------------
  free energy    TOTEN  =      -103.54503859 eV

  energy without entropy =     -103.54503859  energy(sigma->0) =     -103.54503859


--------------------------------------------------------------------------------------------------------




--------------------------------------- Iteration      1(   9)  ---------------------------------------


    POTLOK:  cpu time      0.8389: real time      0.8392
    SETDIJ:  cpu time      0.0028: real time      0.0028
    EDDIAG:  cpu time      0.2386: real time      0.2386
  RMM-DIIS:  cpu time      1.3783: real time      1.3787
    ORTHCH:  cpu time      0.0104: real time      0.0104
       DOS:  cpu time      0.0002: real time      0.0002
    CHARGE:  cpu time      0.1712: real time      0.1712
    MIXING:  cpu time      0.0305: real time      0.0305
    --------------------------------------------
      LOOP:  cpu time      2.6710: real time      2.6717

 eigenvalue-minimisations  :    60
 total energy-change (2. order) : 0.1037162E+00  (-0.4610387E-01)
 number of electron      41.9999997 magnetization 
 augmentation part        1.0509508 magnetization 

 Broyden mixing:
  rms(total) = 0.67883E-01    rms(broyden)= 0.67870E-01
  rms(prec ) = 0.90171E-01
  weight for this iteration     100.00

 eigenvalues of (default mixing * dielectric matrix)
  average eigenvalue GAMMA=   1.4774
  2.2842  1.7374  0.8771  1.0109

 Free energy of the ion-electron system (eV)
  ---------------------------------------------------
  alpha Z        PSCENC =         2.15216506
  Ewald energy   TEWEN  =      2577.97445541
  -Hartree energ DENC   =     -3693.15304617
  -exchange      EXHF   =         0.00000000
  -V(xc)+E(xc)   XCENC  =       140.79844619
  PAW double counting   =      3601.46114334    -3607.77705884
  entropy T*S    EENTRO =        -0.00000000
  eigenvalues    EBANDS =      -531.57069092
  atomic energy  EATOM  =      1406.67326350
  Solvation  Ediel_sol  =         0.00000000
  ---------------------------------------------------
  free energy    TOTEN  =      -103.44132243 eV

  energy without entropy =     -103.44132243  energy(sigma->0) =     -103.44132243


--------------------------------------------------------------------------------------------------------




--------------------------------------- Iteration      1(  10)  ---------------------------------------


    POTLOK:  cpu time      1.2225: real time      1.2229
    SETDIJ:  cpu time      0.0045: real time      0.0045
    EDDIAG:  cpu time      0.2681: real time      0.2681
  RMM-DIIS:  cpu time      1.5431: real time      1.5432
    ORTHCH:  cpu time      0.0095: real time      0.0095
       DOS:  cpu time      0.0002: real time      0.0002
    CHARGE:  cpu time      0.1999: real time      0.1999
    MIXING:  cpu time      0.0367: real time      0.0367
    --------------------------------------------
      LOOP:  cpu time      3.2845: real time      3.2851

 eigenvalue-minimisations  :    64
 total energy-change (2. order) : 0.3364559E-02  (-0.7853117E-02)
 number of electron      41.9999997 magnetization 
 augmentation part        1.0488834 magnetization 

 Broyden mixing:
  rms(total) = 0.31845E-01    rms(broyden)= 0.31838E-01
  rms(prec ) = 0.55718E-01
  weight for this iteration     100.00

 eigenvalues of (default mixing * dielectric matrix)
  average eigenvalue GAMMA=   1.6351
  2.3631  2.3631  1.6330  0.9536  0.8627

 Free energy of the ion-electron system (eV)
  ---------------------------------------------------
  alpha Z        PSCENC =         2.15216506
  Ewald energy   TEWEN  =      2577.97445541
  -Hartree energ DENC   =     -3695.52672969
  -exchange      EXHF   =         0.00000000
  -V(xc)+E(xc)   XCENC  =       140.77709112
  PAW double counting   =      3544.71473221    -3551.06590671
  entropy T*S    EENTRO =        -0.00000000
  eigenvalues    EBANDS =      -529.13702878
  atomic energy  EATOM  =      1406.67326350
  Solvation  Ediel_sol  =         0.00000000
  ---------------------------------------------------
  free energy    TOTEN  =      -103.43795788 eV

  energy without entropy =     -103.43795788  energy(sigma->0) =     -103.43795788


--------------------------------------------------------------------------------------------------------




--------------------------------------- Iteration      1(  11)  ---------------------------------------


    POTLOK:  cpu time      1.3411: real time      1.3498
    SETDIJ:  cpu time      0.0107: real time      0.0107
    EDDIAG:  cpu time      0.2106: real time      0.2107
  RMM-DIIS:  cpu time      1.8948: real time      1.8949
    ORTHCH:  cpu time      0.0144: real time      0.0144
       DOS:  cpu time      0.0003: real time      0.0003
    CHARGE:  cpu time      0.2653: real time      0.2653
    MIXING:  cpu time      0.0706: real time      0.0706
    --------------------------------------------
      LOOP:  cpu time      3.8079: real time      3.8168

 eigenvalue-minimisations  :    60
 total energy-change (2. order) :-0.1093394E-01  (-0.1246177E-01)
 number of electron      41.9999997 magnetization 
 augmentation part        1.0467039 magnetization 

 Broyden mixing:
  rms(total) = 0.44290E-01    rms(broyden)= 0.44284E-01
  rms(prec ) = 0.55697E-01
  weight for this iteration     100.00

 eigenvalues of (default mixing * dielectric matrix)
  average eigenvalue GAMMA=   1.5052
  2.4157  2.4157  1.2855  1.2855  0.8142  0.8142

 Free energy of the ion-electron system (eV)
  ---------------------------------------------------
  alpha Z        PSCENC =         2.15216506
  Ewald energy   TEWEN  =      2577.97445541
  -Hartree energ DENC   =     -3704.35263707
  -exchange      EXHF   =         0.00000000
  -V(xc)+E(xc)   XCENC  =       140.83383150
  PAW double counting   =      3500.41674445    -3506.77052277
  entropy T*S    EENTRO =        -0.00000000
  eigenvalues    EBANDS =      -520.37619189
  atomic energy  EATOM  =      1406.67326350
  Solvation  Ediel_sol  =         0.00000000
  ---------------------------------------------------
  free energy    TOTEN  =      -103.44889181 eV

  energy without entropy =     -103.44889181  energy(sigma->0) =     -103.44889181


--------------------------------------------------------------------------------------------------------




--------------------------------------- Iteration      1(  12)  ---------------------------------------


    POTLOK:  cpu time      1.5388: real time      1.5390
    SETDIJ:  cpu time      0.0271: real time      0.0271
    EDDIAG:  cpu time      0.4579: real time      0.4579
  RMM-DIIS:  cpu time      1.9141: real time      1.9143
    ORTHCH:  cpu time      0.0075: real time      0.0075
       DOS:  cpu time      0.0001: real time      0.0001
    CHARGE:  cpu time      0.2094: real time      0.2095
    MIXING:  cpu time      0.0499: real time      0.0499
    --------------------------------------------
      LOOP:  cpu time      4.2048: real time      4.2052

 eigenvalue-minimisations  :    60
 total energy-change (2. order) : 0.5808840E-02  (-0.1086564E-02)
 number of electron      41.9999997 magnetization 
 augmentation part        1.0458382 magnetization 

 Broyden mixing:
  rms(total) = 0.26960E-01    rms(broyden)= 0.26959E-01
  rms(prec ) = 0.37167E-01
  weight for this iteration     100.00

 eigenvalues of (default mixing * dielectric matrix)
  average eigenvalue GAMMA=   1.5116
  2.4466  2.4466  1.4477  1.4477  0.8300  0.9811  0.9811

 Free energy of the ion-electron system (eV)
  ---------------------------------------------------
  alpha Z        PSCENC =         2.15216506
  Ewald energy   TEWEN  =      2577.97445541
  -Hartree energ DENC   =     -3704.70344593
  -exchange      EXHF   =         0.00000000
  -V(xc)+E(xc)   XCENC  =       140.86754046
  PAW double counting   =      3523.30419369    -3529.64324711
  entropy T*S    EENTRO =        -0.00000000
  eigenvalues    EBANDS =      -520.06800804
  atomic energy  EATOM  =      1406.67326350
  Solvation  Ediel_sol  =         0.00000000
  ---------------------------------------------------
  free energy    TOTEN  =      -103.44308297 eV

  energy without entropy =     -103.44308297  energy(sigma->0) =     -103.44308297


--------------------------------------------------------------------------------------------------------




--------------------------------------- Iteration      1(  13)  ---------------------------------------


    POTLOK:  cpu time      1.7258: real time      1.7262
    SETDIJ:  cpu time      0.0322: real time      0.0322
    EDDIAG:  cpu time      0.3876: real time      0.3876
  RMM-DIIS:  cpu time      2.4376: real time      2.4378
    ORTHCH:  cpu time      0.0192: real time      0.0192
       DOS:  cpu time      0.0003: real time      0.0002
    CHARGE:  cpu time      0.2964: real time      0.2964
    MIXING:  cpu time      0.0694: real time      0.0779
    --------------------------------------------
      LOOP:  cpu time      4.9685: real time      4.9777

 eigenvalue-minimisations  :    60
 total energy-change (2. order) :-0.6555419E-02  (-0.2980851E-02)
 number of electron      41.9999997 magnetization 
 augmentation part        1.0460168 magnetization 

 Broyden mixing:
  rms(total) = 0.12709E-01    rms(broyden)= 0.12705E-01
  rms(prec ) = 0.19239E-01
  weight for this iteration     100.00

 eigenvalues of (default mixing * dielectric matrix)
  average eigenvalue GAMMA=   1.6937
  3.9115  2.5178  1.8485  1.3027  1.3027  0.8319  0.9172  0.9172

 Free energy of the ion-electron system (eV)
  ---------------------------------------------------
  alpha Z        PSCENC =         2.15216506
  Ewald energy   TEWEN  =      2577.97445541
  -Hartree energ DENC   =     -3706.19059862
  -exchange      EXHF   =         0.00000000
  -V(xc)+E(xc)   XCENC  =       140.87475483
  PAW double counting   =      3513.97193328    -3520.29460768
  entropy T*S    EENTRO =        -0.00000000
  eigenvalues    EBANDS =      -518.61100417
  atomic energy  EATOM  =      1406.67326350
  Solvation  Ediel_sol  =         0.00000000
  ---------------------------------------------------
  free energy    TOTEN  =      -103.44963839 eV

  energy without entropy =     -103.44963839  energy(sigma->0) =     -103.44963839


--------------------------------------------------------------------------------------------------------




--------------------------------------- Iteration      1(  14)  ---------------------------------------


    POTLOK:  cpu time      1.5359: real time      1.5381
    SETDIJ:  cpu time      0.0255: real time      0.0255
    EDDIAG:  cpu time      0.4552: real time      0.4553
  RMM-DIIS:  cpu time      2.5224: real time      2.5228
    ORTHCH:  cpu time      0.0152: real time      0.0152
       DOS:  cpu time      0.0002: real time      0.0002
    CHARGE:  cpu time      0.3188: real time      0.3188
    MIXING:  cpu time      0.0874: real time      0.0874
    --------------------------------------------
      LOOP:  cpu time      4.9606: real time      4.9633

 eigenvalue-minimisations  :    61
 total energy-change (2. order) :-0.2782849E-02  (-0.5573326E-03)
 number of electron      41.9999997 magnetization 
 augmentation part        1.0454684 magnetization 

 Broyden mixing:
  rms(total) = 0.83007E-02    rms(broyden)= 0.82989E-02
  rms(prec ) = 0.12165E-01
  weight for this iteration     100.00

 eigenvalues of (default mixing * dielectric matrix)
  average eigenvalue GAMMA=   1.7886
  4.2711  2.4615  2.4615  1.6267  1.2916  1.2916  0.8298  0.9316  0.9316

 Free energy of the ion-electron system (eV)
  ---------------------------------------------------
  alpha Z        PSCENC =         2.15216506
  Ewald energy   TEWEN  =      2577.97445541
  -Hartree energ DENC   =     -3709.11380507
  -exchange      EXHF   =         0.00000000
  -V(xc)+E(xc)   XCENC  =       140.93190348
  PAW double counting   =      3515.49463786    -3521.82444512
  entropy T*S    EENTRO =        -0.00000000
  eigenvalues    EBANDS =      -515.74059636
  atomic energy  EATOM  =      1406.67326350
  Solvation  Ediel_sol  =         0.00000000
  ---------------------------------------------------
  free energy    TOTEN  =      -103.45242124 eV

  energy without entropy =     -103.45242124  energy(sigma->0) =     -103.45242124


--------------------------------------------------------------------------------------------------------




--------------------------------------- Iteration      1(  15)  ---------------------------------------


    POTLOK:  cpu time      1.6601: real time      1.6604
    SETDIJ:  cpu time      0.0191: real time      0.0190
    EDDIAG:  cpu time      0.4549: real time      0.4550
  RMM-DIIS:  cpu time      2.1896: real time      2.1898
    ORTHCH:  cpu time      0.0143: real time      0.0143
       DOS:  cpu time      0.0002: real time      0.0002
    CHARGE:  cpu time      0.2783: real time      0.2783
    MIXING:  cpu time      0.1156: real time      0.1156
    --------------------------------------------
      LOOP:  cpu time      4.7320: real time      4.7326

 eigenvalue-minimisations  :    61
 total energy-change (2. order) :-0.1074178E-01  (-0.3652533E-03)
 number of electron      41.9999997 magnetization 
 augmentation part        1.0447985 magnetization 

 Broyden mixing:
  rms(total) = 0.36276E-02    rms(broyden)= 0.36266E-02
  rms(prec ) = 0.56808E-02
  weight for this iteration     100.00

 eigenvalues of (default mixing * dielectric matrix)
  average eigenvalue GAMMA=   1.9185
  6.0163  2.7906  2.2175  1.9756  1.3109  1.3109  0.9057  0.9057  0.8431  0.9086

 Free energy of the ion-electron system (eV)
  ---------------------------------------------------
  alpha Z        PSCENC =         2.15216506
  Ewald energy   TEWEN  =      2577.97445541
  -Hartree energ DENC   =     -3710.64037982
  -exchange      EXHF   =         0.00000000
  -V(xc)+E(xc)   XCENC  =       140.94734049
  PAW double counting   =      3517.34575889    -3523.68252778
  entropy T*S    EENTRO =        -0.00000000
  eigenvalues    EBANDS =      -514.23323877
  atomic energy  EATOM  =      1406.67326350
  Solvation  Ediel_sol  =         0.00000000
  ---------------------------------------------------
  free energy    TOTEN  =      -103.46316302 eV

  energy without entropy =     -103.46316302  energy(sigma->0) =     -103.46316302


--------------------------------------------------------------------------------------------------------




--------------------------------------- Iteration      1(  16)  ---------------------------------------


    POTLOK:  cpu time      1.6579: real time      1.6665
    SETDIJ:  cpu time      0.0300: real time      0.0300
    EDDIAG:  cpu time      0.4349: real time      0.4350
  RMM-DIIS:  cpu time      2.5651: real time      2.5653
    ORTHCH:  cpu time      0.0153: real time      0.0153
       DOS:  cpu time      0.0001: real time      0.0002
    CHARGE:  cpu time      0.2839: real time      0.2839
    MIXING:  cpu time      0.1162: real time      0.1162
    --------------------------------------------
      LOOP:  cpu time      5.1035: real time      5.1125

 eigenvalue-minimisations  :    66
 total energy-change (2. order) :-0.3245873E-02  (-0.1171556E-03)
 number of electron      41.9999997 magnetization 
 augmentation part        1.0445117 magnetization 

 Broyden mixing:
  rms(total) = 0.33437E-02    rms(broyden)= 0.33431E-02
  rms(prec ) = 0.47415E-02
  weight for this iteration     100.00

 eigenvalues of (default mixing * dielectric matrix)
  average eigenvalue GAMMA=   1.9680
  6.5974  2.9445  2.1161  2.1161  1.3079  1.3079  1.5566  0.9735  0.9735  0.8266
  0.9274

 Free energy of the ion-electron system (eV)
  ---------------------------------------------------
  alpha Z        PSCENC =         2.15216506
  Ewald energy   TEWEN  =      2577.97445541
  -Hartree energ DENC   =     -3710.60277862
  -exchange      EXHF   =         0.00000000
  -V(xc)+E(xc)   XCENC  =       140.93076524
  PAW double counting   =      3514.63290752    -3520.96843170
  entropy T*S    EENTRO =        -0.00000000
  eigenvalues    EBANDS =      -514.25875531
  atomic energy  EATOM  =      1406.67326350
  Solvation  Ediel_sol  =         0.00000000
  ---------------------------------------------------
  free energy    TOTEN  =      -103.46640889 eV

  energy without entropy =     -103.46640889  energy(sigma->0) =     -103.46640889


--------------------------------------------------------------------------------------------------------




--------------------------------------- Iteration      1(  17)  ---------------------------------------


    POTLOK:  cpu time      1.4967: real time      1.4969
    SETDIJ:  cpu time      0.0189: real time      0.0189
    EDDIAG:  cpu time      0.3448: real time      0.3448
  RMM-DIIS:  cpu time      2.1643: real time      2.1647
    ORTHCH:  cpu time      0.0165: real time      0.0165
       DOS:  cpu time      0.0002: real time      0.0002
    CHARGE:  cpu time      0.3206: real time      0.3207
    MIXING:  cpu time      0.1391: real time      0.1391
    --------------------------------------------
      LOOP:  cpu time      4.5010: real time      4.5017

 eigenvalue-minimisations  :    60
 total energy-change (2. order) :-0.3580730E-02  (-0.7230106E-04)
 number of electron      41.9999997 magnetization 
 augmentation part        1.0446848 magnetization 

 Broyden mixing:
  rms(total) = 0.14541E-02    rms(broyden)= 0.14536E-02
  rms(prec ) = 0.21530E-02
  weight for this iteration     100.00

 eigenvalues of (default mixing * dielectric matrix)
  average eigenvalue GAMMA=   2.0677
  7.4749  3.7735  2.4383  1.9024  1.9024  1.3240  1.3240  1.0487  1.0487  0.8176
  0.8791  0.8791

 Free energy of the ion-electron system (eV)
  ---------------------------------------------------
  alpha Z        PSCENC =         2.15216506
  Ewald energy   TEWEN  =      2577.97445541
  -Hartree energ DENC   =     -3710.11710636
  -exchange      EXHF   =         0.00000000
  -V(xc)+E(xc)   XCENC  =       140.90381890
  PAW double counting   =      3514.27446981    -3520.60598718
  entropy T*S    EENTRO =        -0.00000000
  eigenvalues    EBANDS =      -514.72506876
  atomic energy  EATOM  =      1406.67326350
  Solvation  Ediel_sol  =         0.00000000
  ---------------------------------------------------
  free energy    TOTEN  =      -103.46998963 eV

  energy without entropy =     -103.46998963  energy(sigma->0) =     -103.46998963


--------------------------------------------------------------------------------------------------------




--------------------------------------- Iteration      1(  18)  ---------------------------------------


    POTLOK:  cpu time      1.3694: real time      1.3781
    SETDIJ:  cpu time      0.0041: real time      0.0041
    EDDIAG:  cpu time      0.2685: real time      0.2685
  RMM-DIIS:  cpu time      1.9911: real time      1.9912
    ORTHCH:  cpu time      0.0117: real time      0.0117
       DOS:  cpu time      0.0002: real time      0.0002
    CHARGE:  cpu time      0.2109: real time      0.2110
    MIXING:  cpu time      0.1062: real time      0.1062
    --------------------------------------------
      LOOP:  cpu time      3.9621: real time      3.9709

 eigenvalue-minimisations  :    59
 total energy-change (2. order) :-0.8808216E-03  (-0.2697393E-04)
 number of electron      41.9999997 magnetization 
 augmentation part        1.0446432 magnetization 

 Broyden mixing:
  rms(total) = 0.15399E-02    rms(broyden)= 0.15397E-02
  rms(prec ) = 0.19259E-02
  weight for this iteration     100.00

 eigenvalues of (default mixing * dielectric matrix)
  average eigenvalue GAMMA=   2.1160
  7.7740  3.9107  2.2979  2.1952  2.1952  1.8415  1.3321  1.3321  1.0105  1.0105
  0.8181  0.8953  0.8953

 Free energy of the ion-electron system (eV)
  ---------------------------------------------------
  alpha Z        PSCENC =         2.15216506
  Ewald energy   TEWEN  =      2577.97445541
  -Hartree energ DENC   =     -3710.17331527
  -exchange      EXHF   =         0.00000000
  -V(xc)+E(xc)   XCENC  =       140.90458821
  PAW double counting   =      3515.58608962    -3521.91773771
  entropy T*S    EENTRO =        -0.00000000
  eigenvalues    EBANDS =      -514.67037927
  atomic energy  EATOM  =      1406.67326350
  Solvation  Ediel_sol  =         0.00000000
  ---------------------------------------------------
  free energy    TOTEN  =      -103.47087045 eV

  energy without entropy =     -103.47087045  energy(sigma->0) =     -103.47087045


--------------------------------------------------------------------------------------------------------




--------------------------------------- Iteration      1(  19)  ---------------------------------------


    POTLOK:  cpu time      1.7102: real time      1.7205
    SETDIJ:  cpu time      0.0146: real time      0.0146
    EDDIAG:  cpu time      0.4278: real time      0.4278
  RMM-DIIS:  cpu time      2.3125: real time      2.3131
    ORTHCH:  cpu time      0.0100: real time      0.0100
       DOS:  cpu time      0.0002: real time      0.0002
    CHARGE:  cpu time      0.2556: real time      0.2557
    MIXING:  cpu time      0.0976: real time      0.0976
    --------------------------------------------
      LOOP:  cpu time      4.8286: real time      4.8396

 eigenvalue-minimisations  :    60
 total energy-change (2. order) :-0.7025502E-03  (-0.1614541E-04)
 number of electron      41.9999997 magnetization 
 augmentation part        1.0445011 magnetization 

 Broyden mixing:
  rms(total) = 0.16845E-02    rms(broyden)= 0.16843E-02
  rms(prec ) = 0.19423E-02
  weight for this iteration     100.00

 eigenvalues of (default mixing * dielectric matrix)
  average eigenvalue GAMMA=   2.1594
  8.4483  4.8703  2.6118  2.3447  1.7782  1.7782  1.3210  1.3210  1.1176  1.1176
  0.8250  0.8967  0.8967  0.9050

 Free energy of the ion-electron system (eV)
  ---------------------------------------------------
  alpha Z        PSCENC =         2.15216506
  Ewald energy   TEWEN  =      2577.97445541
  -Hartree energ DENC   =     -3710.26577757
  -exchange      EXHF   =         0.00000000
  -V(xc)+E(xc)   XCENC  =       140.90599363
  PAW double counting   =      3513.79354408    -3520.12717614
  entropy T*S    EENTRO =        -0.00000000
  eigenvalues    EBANDS =      -514.57804096
  atomic energy  EATOM  =      1406.67326350
  Solvation  Ediel_sol  =         0.00000000
  ---------------------------------------------------
  free energy    TOTEN  =      -103.47157300 eV

  energy without entropy =     -103.47157300  energy(sigma->0) =     -103.47157300


--------------------------------------------------------------------------------------------------------




--------------------------------------- Iteration      1(  20)  ---------------------------------------


    POTLOK:  cpu time      1.5813: real time      1.5814
    SETDIJ:  cpu time      0.0049: real time      0.0049
    EDDIAG:  cpu time      0.3720: real time      0.3720
  RMM-DIIS:  cpu time      1.8732: real time      1.8733
    ORTHCH:  cpu time      0.0211: real time      0.0211
       DOS:  cpu time      0.0003: real time      0.0003
    CHARGE:  cpu time      0.3735: real time      0.3735
    MIXING:  cpu time      0.1475: real time      0.1476
    --------------------------------------------
      LOOP:  cpu time      4.3737: real time      4.3741

 eigenvalue-minimisations  :    45
 total energy-change (2. order) :-0.1166230E-03  (-0.2992635E-05)
 number of electron      41.9999997 magnetization 
 augmentation part        1.0445319 magnetization 

 Broyden mixing:
  rms(total) = 0.72856E-03    rms(broyden)= 0.72854E-03
  rms(prec ) = 0.88508E-03
  weight for this iteration     100.00

 eigenvalues of (default mixing * dielectric matrix)
  average eigenvalue GAMMA=   2.1892
  8.4256  5.3061  2.6249  2.2523  2.2523  1.7439  1.7439  1.3243  1.3243  1.0727
  1.0727  0.8199  0.9035  0.9035  1.0676

 Free energy of the ion-electron system (eV)
  ---------------------------------------------------
  alpha Z        PSCENC =         2.15216506
  Ewald energy   TEWEN  =      2577.97445541
  -Hartree energ DENC   =     -3710.21144673
  -exchange      EXHF   =         0.00000000
  -V(xc)+E(xc)   XCENC  =       140.90392181
  PAW double counting   =      3514.44020631    -3520.77272271
  entropy T*S    EENTRO =        -0.00000000
  eigenvalues    EBANDS =      -514.63153226
  atomic energy  EATOM  =      1406.67326350
  Solvation  Ediel_sol  =         0.00000000
  ---------------------------------------------------
  free energy    TOTEN  =      -103.47168962 eV

  energy without entropy =     -103.47168962  energy(sigma->0) =     -103.47168962


--------------------------------------------------------------------------------------------------------




--------------------------------------- Iteration      1(  21)  ---------------------------------------


    POTLOK:  cpu time      1.4478: real time      1.4480
    SETDIJ:  cpu time      0.0044: real time      0.0044
    EDDIAG:  cpu time      0.2561: real time      0.2561
  RMM-DIIS:  cpu time      1.7220: real time      1.7222
    ORTHCH:  cpu time      0.0148: real time      0.0148
       DOS:  cpu time      0.0003: real time      0.0003
    CHARGE:  cpu time      0.3178: real time      0.3178
    MIXING:  cpu time      0.1408: real time      0.1409
    --------------------------------------------
      LOOP:  cpu time      3.9041: real time      3.9044

 eigenvalue-minimisations  :    43
 total energy-change (2. order) :-0.1261886E-03  (-0.2551911E-05)
 number of electron      41.9999997 magnetization 
 augmentation part        1.0445593 magnetization 

 Broyden mixing:
  rms(total) = 0.33553E-03    rms(broyden)= 0.33538E-03
  rms(prec ) = 0.42233E-03
  weight for this iteration     100.00

 eigenvalues of (default mixing * dielectric matrix)
  average eigenvalue GAMMA=   2.2088
  8.9572  5.5243  3.3575  2.5404  2.0833  2.0833  1.3138  1.3138  1.2995  1.2995
  1.0421  0.8194  0.9530  0.9530  0.9007  0.9007

 Free energy of the ion-electron system (eV)
  ---------------------------------------------------
  alpha Z        PSCENC =         2.15216506
  Ewald energy   TEWEN  =      2577.97445541
  -Hartree energ DENC   =     -3710.19470580
  -exchange      EXHF   =         0.00000000
  -V(xc)+E(xc)   XCENC  =       140.90386460
  PAW double counting   =      3514.77276774    -3521.10505697
  entropy T*S    EENTRO =        -0.00000000
  eigenvalues    EBANDS =      -514.64856934
  atomic energy  EATOM  =      1406.67326350
  Solvation  Ediel_sol  =         0.00000000
  ---------------------------------------------------
  free energy    TOTEN  =      -103.47181581 eV

  energy without entropy =     -103.47181581  energy(sigma->0) =     -103.47181581


--------------------------------------------------------------------------------------------------------




--------------------------------------- Iteration      1(  22)  ---------------------------------------


    POTLOK:  cpu time      1.5907: real time      1.5908
    SETDIJ:  cpu time      0.0305: real time      0.0305
    EDDIAG:  cpu time      0.4354: real time      0.4354
  RMM-DIIS:  cpu time      1.6296: real time      1.6297
    ORTHCH:  cpu time      0.0189: real time      0.0189
       DOS:  cpu time      0.0003: real time      0.0003
    CHARGE:  cpu time      0.2581: real time      0.2581
    MIXING:  cpu time      0.1349: real time      0.1349
    --------------------------------------------
      LOOP:  cpu time      4.0983: real time      4.0986

 eigenvalue-minimisations  :    39
 total energy-change (2. order) :-0.3720002E-04  (-0.3704136E-06)
 number of electron      41.9999997 magnetization 
 augmentation part        1.0445663 magnetization 

 Broyden mixing:
  rms(total) = 0.22091E-03    rms(broyden)= 0.22086E-03
  rms(prec ) = 0.27401E-03
  weight for this iteration     100.00

 eigenvalues of (default mixing * dielectric matrix)
  average eigenvalue GAMMA=   2.2186
  9.0214  5.6932  3.3748  2.3926  2.3926  2.2453  1.7839  1.2894  1.2894  1.3138
  1.3138  1.0319  1.0319  0.8210  0.9022  0.9022  0.9162

 Free energy of the ion-electron system (eV)
  ---------------------------------------------------
  alpha Z        PSCENC =         2.15216506
  Ewald energy   TEWEN  =      2577.97445541
  -Hartree energ DENC   =     -3710.21040834
  -exchange      EXHF   =         0.00000000
  -V(xc)+E(xc)   XCENC  =       140.90416644
  PAW double counting   =      3514.55619997    -3520.88845135
  entropy T*S    EENTRO =        -0.00000000
  eigenvalues    EBANDS =      -514.63324370
  atomic energy  EATOM  =      1406.67326350
  Solvation  Ediel_sol  =         0.00000000
  ---------------------------------------------------
  free energy    TOTEN  =      -103.47185301 eV

  energy without entropy =     -103.47185301  energy(sigma->0) =     -103.47185301


--------------------------------------------------------------------------------------------------------




--------------------------------------- Iteration      1(  23)  ---------------------------------------


    POTLOK:  cpu time      1.5586: real time      1.5591
    SETDIJ:  cpu time      0.0187: real time      0.0187
    EDDIAG:  cpu time      0.4401: real time      0.4401
  RMM-DIIS:  cpu time      1.5567: real time      1.5573
    ORTHCH:  cpu time      0.0140: real time      0.0140
       DOS:  cpu time      0.0002: real time      0.0002
    CHARGE:  cpu time      0.3115: real time      0.3132
    MIXING:  cpu time      0.1514: real time      0.1514
    --------------------------------------------
      LOOP:  cpu time      4.0512: real time      4.0540

 eigenvalue-minimisations  :    38
 total energy-change (2. order) :-0.2661886E-04  (-0.1595844E-06)
 number of electron      41.9999997 magnetization 
 augmentation part        1.0445648 magnetization 

 Broyden mixing:
  rms(total) = 0.11811E-03    rms(broyden)= 0.11809E-03
  rms(prec ) = 0.14281E-03
  weight for this iteration     100.00

 eigenvalues of (default mixing * dielectric matrix)
  average eigenvalue GAMMA=   2.2780
  9.2349  6.1116  4.4696  2.7868  2.4641  2.0203  2.0203  1.3071  1.3071  1.3421
  1.3421  1.0101  1.0101  0.8206  0.9030  0.9030  0.9757  0.9757

 Free energy of the ion-electron system (eV)
  ---------------------------------------------------
  alpha Z        PSCENC =         2.15216506
  Ewald energy   TEWEN  =      2577.97445541
  -Hartree energ DENC   =     -3710.21133146
  -exchange      EXHF   =         0.00000000
  -V(xc)+E(xc)   XCENC  =       140.90421637
  PAW double counting   =      3514.63969291    -3520.97194062
  entropy T*S    EENTRO =        -0.00000000
  eigenvalues    EBANDS =      -514.63240079
  atomic energy  EATOM  =      1406.67326350
  Solvation  Ediel_sol  =         0.00000000
  ---------------------------------------------------
  free energy    TOTEN  =      -103.47187963 eV

  energy without entropy =     -103.47187963  energy(sigma->0) =     -103.47187963


--------------------------------------------------------------------------------------------------------




--------------------------------------- Iteration      1(  24)  ---------------------------------------


    POTLOK:  cpu time      1.7208: real time      1.7210
    SETDIJ:  cpu time      0.0204: real time      0.0204
    EDDIAG:  cpu time      0.5172: real time      0.5173
  RMM-DIIS:  cpu time      1.6255: real time      1.6258
    ORTHCH:  cpu time      0.0247: real time      0.0247
       DOS:  cpu time      0.0003: real time      0.0003
    --------------------------------------------
      LOOP:  cpu time      3.9088: real time      3.9094

 eigenvalue-minimisations  :    24
 total energy-change (2. order) :-0.8803381E-05  (-0.3862920E-07)
 number of electron      41.9999997 magnetization 
 augmentation part        1.0445648 magnetization 

 Free energy of the ion-electron system (eV)
  ---------------------------------------------------
  alpha Z        PSCENC =         2.15216506
  Ewald energy   TEWEN  =      2577.97445541
  -Hartree energ DENC   =     -3710.21650185
  -exchange      EXHF   =         0.00000000
  -V(xc)+E(xc)   XCENC  =       140.90434815
  PAW double counting   =      3514.55459949    -3520.88694507
  entropy T*S    EENTRO =        -0.00000000
  eigenvalues    EBANDS =      -514.62727312
  atomic energy  EATOM  =      1406.67326350
  Solvation  Ediel_sol  =         0.00000000
  ---------------------------------------------------
  free energy    TOTEN  =      -103.47188843 eV

  energy without entropy =     -103.47188843  energy(sigma->0) =     -103.47188843


[...]
 d Force = 0.4625123E-01[ 0.464E-01, 0.461E-01]  d Ewald  = 0.4625120E-01 0.251E-07


--------------------------------------------------------------------------------------------------------


    POTLOK:  cpu time      1.5590: real time      1.6206


--------------------------------------------------------------------------------------------------------


 NEB: the previous image is higher in energy: T
 NEB: the next image is higher in energy    : F
 NEB: only prev energy greater

 NEB: Tangent
 ----------------------------------------------
      0.02599      0.00109      0.03701
      0.03410     -0.00098      0.05519
     -0.00290      0.03472     -0.01122
     -0.03154     -0.03454     -0.08546
      0.09687      0.02370      0.21202
      0.05038     -0.02283      0.06148
      0.03401     -0.00250      0.04642
      0.02967      0.00945      0.08791
     -0.14027     -0.33770     -0.17953
     -0.09712      0.16101     -0.33528
      0.04648     -0.01615      0.12839
     -0.01814      0.15551     -0.00428
     -0.05983      0.00038     -0.10558
      0.40950      0.00176      0.31502
     -0.08003      0.14148      0.46740
      0.08005     -0.12561      0.03323
      0.02037      0.01661      0.03848

 NEB: forces: par spring, perp REAL, dneb     0.021863    0.051481    0.000000
 NEB: distance to prev, next image, angle between     1.317002    1.321374  147.677614
 NEB: projections on to tangent (spring, REAL)     0.021863    0.115500

 stress matrix after NEB project (eV)
     -1.95664      0.03093     -0.02820
      0.03093     -1.85553      0.02716
     -0.02820      0.02716     -1.92394
  FORCES: max atom, RMS     0.021242    0.013565
  FORCE total and by dimension    0.055931    0.019695
  Stress total and by dimension    3.313300    1.956637
 Quasi-Newton relaxation of ions (Broydens 2nd method)
  g(Force)  = 0.418E-03   g(Stress)= 0.000E+00

 retain information from N=  1 steps
 eigenvalues of (default step * inverse Hessian matrix)
  average eigenvalue of G=   1.6672
 eigenvalue spectrum of G is  1.6672


--------------------------------------------------------------------------------------------------------


    WAVPRE:  cpu time      2.7962: real time      3.6137
    FEWALD:  cpu time      0.0389: real time      0.0389
    ORTHCH:  cpu time      0.1635: real time      0.2875
     LOOP+:  cpu time     18.3640: real time     22.1933


--------------------------------------- Iteration    108(   1)  ---------------------------------------


    POTLOK:  cpu time      2.4678: real time      2.7553
    SETDIJ:  cpu time      0.0406: real time      0.0451
     EDDAV:  cpu time      2.5567: real time      2.5988
       DOS:  cpu time      0.0002: real time      0.0087
    CHARGE:  cpu time      0.1130: real time      0.1132
    MIXING:  cpu time      0.0514: real time      0.0535
    --------------------------------------------
      LOOP:  cpu time      5.2298: real time      5.5747

 eigenvalue-minimisations  :    66
 total energy-change (2. order) :-0.1303415E-03  (-0.2085272E-03)
 number of electron      41.9999989 magnetization 
 augmentation part        1.0336436 magnetization 

 Broyden mixing:
  rms(total) = 0.82680E-03    rms(broyden)= 0.82332E-03
  rms(prec ) = 0.87157E-03
  weight for this iteration     100.00

 Free energy of the ion-electron system (eV)
  ---------------------------------------------------
  alpha Z        PSCENC =         2.15216506
  Ewald energy   TEWEN  =      2546.55773301
  -Hartree energ DENC   =     -3680.29455227
  -exchange      EXHF   =         0.00000000
  -V(xc)+E(xc)   XCENC  =       140.48911033
  PAW double counting   =      3446.01926019    -3452.31853183
  entropy T*S    EENTRO =        -0.00000000
  eigenvalues    EBANDS =      -512.78570364
  atomic energy  EATOM  =      1406.67326350
  Solvation  Ediel_sol  =         0.00000000
  ---------------------------------------------------
  free energy    TOTEN  =      -103.50725565 eV

  energy without entropy =     -103.50725565  energy(sigma->0) =     -103.50725565


--------------------------------------------------------------------------------------------------------




--------------------------------------- Iteration    108(   2)  ---------------------------------------


    POTLOK:  cpu time      1.3805: real time      1.9655
    SETDIJ:  cpu time      0.0149: real time      0.0309
    EDDIAG:  cpu time      0.2477: real time      0.4654
  RMM-DIIS:  cpu time      0.9988: real time      1.0435
    ORTHCH:  cpu time      0.0252: real time      0.0253
       DOS:  cpu time      0.0001: real time      0.0001
    --------------------------------------------
      LOOP:  cpu time      2.6672: real time      3.5307

 eigenvalue-minimisations  :    41
 total energy-change (2. order) :-0.2165659E-05  (-0.2460456E-05)
 number of electron      41.9999989 magnetization 
 augmentation part        1.0336436 magnetization 

 Free energy of the ion-electron system (eV)
  ---------------------------------------------------
  alpha Z        PSCENC =         2.15216506
  Ewald energy   TEWEN  =      2546.55773301
  -Hartree energ DENC   =     -3680.29172947
  -exchange      EXHF   =         0.00000000
  -V(xc)+E(xc)   XCENC  =       140.48892796
  PAW double counting   =      3445.92962797    -3452.22882393
  entropy T*S    EENTRO =        -0.00000000
  eigenvalues    EBANDS =      -512.78842192
  atomic energy  EATOM  =      1406.67326350
  Solvation  Ediel_sol  =         0.00000000
  ---------------------------------------------------
  free energy    TOTEN  =      -103.50725781 eV

  energy without entropy =     -103.50725781  energy(sigma->0) =     -103.50725781


--------------------------------------------------------------------------------------------------------




 average (electrostatic) potential at core
  the test charge radii are     0.6991  0.5201  0.7089
  (the norm of the test charge is              1.0000)
       1 -58.7595       2 -58.7265       3 -59.0201       4 -58.8728       5 -58.9782
       6 -59.8188       7 -59.6482       8 -42.0124       9 -41.9957      10 -41.9373
      11 -42.0208      12 -42.0497      13 -42.0446      14 -41.9985      15 -41.9590
      16 -42.4832      17 -72.9117
 
 
 
 E-fermi :  -5.8140     XC(G=0):  -0.6153     alpha+bet : -0.2838

 Fermi energy:        -5.8139614598

 k-point     1 :       0.0000    0.0000    0.0000
  band No.  band energies     occupation 
      1     -22.2712      2.00000
      2     -21.1475      2.00000
      3     -19.1120      2.00000
      4     -18.6957      2.00000
      5     -15.9851      2.00000
      6     -15.4673      2.00000
      7     -13.0285      2.00000
      8     -12.9427      2.00000
      9     -11.9083      2.00000
     10     -10.9372      2.00000
     11     -10.5498      2.00000
     12     -10.3589      2.00000
     13      -9.8524      2.00000
     14      -9.5816      2.00000
     15      -8.7183      2.00000
     16      -8.4181      2.00000
     17      -8.3195      2.00000
     18      -7.9319      2.00000
     19      -7.6028      2.00000
     20      -7.4568      2.00000
     21      -6.1085      2.00000
     22      -0.8896      0.00000
     23      -0.6583      0.00000
     24      -0.1652      0.00000
     25      -0.0907      0.00000
     26      -0.0233      0.00000
     27       0.0380      0.00000
     28       0.1652      0.00000
     29       0.3729      0.00000
     30       0.4631      0.00000


--------------------------------------------------------------------------------------------------------


 soft charge-density along one line, spin component           1
         0         1         2         3         4         5         6         7         8         9
 total charge-density along one line
 
 pseudopotential strength for first ion, spin component:           1
 10.251  13.634  -0.000  -0.000   0.001  -0.000   0.001  -0.002
 13.634  18.131  -0.000  -0.000   0.001  -0.001   0.001  -0.002
 -0.000  -0.000  -4.382  -0.001  -0.000   8.570   0.001   0.000
 -0.000  -0.000  -0.001  -4.373   0.001   0.001   8.559  -0.001
  0.001   0.001  -0.000   0.001  -4.377   0.000  -0.001   8.563
 -0.000  -0.001   8.570   0.001   0.000 -18.901  -0.000  -0.000
  0.001   0.001   0.001   8.559  -0.001  -0.000 -18.891   0.000
 -0.002  -0.002   0.000  -0.001   8.563  -0.000   0.000 -18.893
 total augmentation occupancy for first ion, spin component:           1
  7.798  -3.379   0.379   0.030   0.037   0.061   0.003   0.013
 -3.379   1.510  -0.216  -0.012  -0.038  -0.033  -0.001  -0.010
  0.379  -0.216   1.901   0.070   0.025   0.178   0.011   0.000
  0.030  -0.012   0.070   1.217  -0.131   0.011   0.078  -0.020
  0.037  -0.038   0.025  -0.131   1.626   0.000  -0.020   0.141
  0.061  -0.033   0.178   0.011   0.000   0.018   0.001  -0.000
  0.003  -0.001   0.011   0.078  -0.020   0.001   0.005  -0.002
  0.013  -0.010   0.000  -0.020   0.141  -0.000  -0.002   0.013


------------------------ aborting loop because EDIFF is reached ----------------------------------------


    CHARGE:  cpu time      0.2141: real time      0.4222
    FORLOC:  cpu time      0.1277: real time      0.2598
    FORNL :  cpu time      0.2382: real time      0.4903
    STRESS:  cpu time      1.0179: real time      2.0141
    FORCOR:  cpu time      1.7281: real time      1.9213
    FORHAR:  cpu time      0.6851: real time      0.7336
    MIXING:  cpu time      0.0546: real time      0.0547
    OFIELD:  cpu time      0.0001: real time      0.0001

 ---------------------------------------------------------------------------------------------

         DFTD3 V3.0 Rev 1        
 Edisp (eV)   -0.19616

 E6    (eV) :    -0.0823
 E8    (eV) :    -0.1139
 % E8        : 58.06
    FORVDW:  cpu time      0.0077: real time      0.0078

  FORCE on cell =-STRESS in cart. coord.  units (eV):
  Direction    XX          YY          ZZ          XY          YZ          ZX
  --------------------------------------------------------------------------------------
  Alpha Z     2.15217     2.15217     2.15217
  Ewald    1284.76584  1212.96868    48.82202   408.64106  -135.53590  -624.78530
  Hartree  1529.50311  1486.02552   664.75795   280.10330  -112.87647  -464.87544
  E(xc)    -152.62148  -152.97556  -154.44188     0.63553    -0.05654    -0.58971
  Local   -3209.38917 -3103.28801 -1138.79286  -674.93626   247.67308  1084.04062
  n-local   -62.47404   -61.01680   -60.29913    -1.60193     0.10047    -0.14930
  augment    -0.62566    -0.64741    -0.61494     0.00478    -0.01831    -0.02571
  Kinetic   606.74429   614.95576   636.48593   -12.81181     0.73404     6.34837
  Fock        0.00000     0.00000     0.00000     0.00000     0.00000     0.00000
  vdW        -0.01087    -0.02889     0.00810    -0.01001     0.00693     0.01515
  -------------------------------------------------------------------------------------
  Total      -1.95582    -1.85454    -1.92265     0.02466     0.02729    -0.02132
  in kB      -0.85760    -0.81319    -0.84306     0.01081     0.01197    -0.00935
  external pressure =       -0.84 kB  Pullay stress =        0.00 kB


 VOLUME and BASIS-vectors are now :
 -----------------------------------------------------------------------------
  energy-cutoff  :      400.00
  volume of cell :     3653.87
      direct lattice vectors                 reciprocal lattice vectors
    15.402250290  0.000000000  0.000000000     0.064925578  0.000000000  0.000000000
     0.000000000 15.402250290  0.000000000     0.000000000  0.064925578  0.000000000
     0.000000000  0.000000000 15.402250290     0.000000000  0.000000000  0.064925578

  length of vectors
    15.402250290 15.402250290 15.402250290     0.064925578  0.064925578  0.064925578


 FORCES acting on ions
    electron-ion (+dipol)            ewald-force                    non-local-force                 convergence-correction
 -----------------------------------------------------------------------------------------------
   0.153E+03 0.111E+03 -.493E+02   -.153E+03 -.111E+03 0.495E+02   0.614E+00 0.169E+00 -.180E+00   -.503E-03 0.202E-03 -.166E-02
   0.156E+03 -.900E+02 -.790E+02   -.157E+03 0.902E+02 0.795E+02   0.855E+00 -.146E+00 -.461E+00   -.653E-03 0.244E-03 -.254E-02
   0.247E+02 -.154E+03 -.748E+02   -.251E+02 0.155E+03 0.755E+02   0.319E+00 -.963E+00 -.739E+00   0.130E-02 -.817E-03 0.866E-03
   0.107E+02 0.177E+03 -.109E+02   -.105E+02 -.178E+03 0.107E+02   -.210E+00 0.259E+00 0.181E+00   0.942E-03 0.121E-04 0.250E-02
   -.119E+03 0.112E+03 0.224E+02   0.119E+03 -.113E+03 -.221E+02   -.466E+00 0.111E+01 -.284E+00   0.930E-03 0.128E-02 0.133E-02
   -.223E+01 -.349E+02 0.959E+02   -.158E+01 0.324E+02 -.948E+02   0.381E+01 0.251E+01 -.109E+01   0.775E-03 0.212E-03 0.181E-02
   -.170E+02 -.252E+02 0.451E+02   0.144E+02 0.236E+02 -.446E+02   0.259E+01 0.165E+01 -.557E+00   0.148E-02 0.778E-04 0.460E-02
   0.703E+02 0.425E+02 -.180E+02   -.750E+02 -.453E+02 0.191E+02   0.478E+01 0.286E+01 -.109E+01   -.173E-03 0.786E-05 -.498E-03
   -.176E+02 0.619E+02 -.553E+02   0.191E+02 -.650E+02 0.595E+02   -.154E+01 0.306E+01 -.419E+01   0.112E-03 0.376E-03 0.276E-03
   0.215E+02 0.676E+02 0.462E+02   -.231E+02 -.712E+02 -.500E+02   0.151E+01 0.362E+01 0.380E+01   0.147E-03 -.390E-03 0.296E-03
   0.703E+02 -.377E+02 -.273E+02   -.751E+02 0.403E+02 0.290E+02   0.474E+01 -.267E+01 -.166E+01   -.298E-03 0.333E-04 -.682E-03
   -.335E+02 -.303E+02 -.724E+02   0.366E+02 0.309E+02 0.768E+02   -.312E+01 -.586E+00 -.443E+01   -.247E-04 -.318E-03 0.539E-05
   0.250E+02 -.820E+02 0.806E+01   -.264E+02 0.872E+02 -.957E+01   0.139E+01 -.518E+01 0.149E+01   0.166E-03 0.606E-04 0.349E-03
   -.434E+02 0.488E+02 0.566E+02   0.459E+02 -.514E+02 -.609E+02   -.246E+01 0.252E+01 0.431E+01   0.197E-03 0.440E-04 0.101E-03
   -.664E+02 0.181E+02 -.505E+02   0.703E+02 -.179E+02 0.545E+02   -.390E+01 -.222E+00 -.396E+01   -.506E-05 0.171E-03 0.373E-04
   0.394E+02 -.634E+01 0.794E+02   -.426E+02 0.621E+01 -.840E+02   0.320E+01 0.119E+00 0.452E+01   0.117E-03 0.102E-03 0.235E-03
   -.251E+03 -.166E+03 0.805E+02   0.284E+03 0.187E+03 -.883E+02   -.334E+02 -.211E+02 0.785E+01   -.932E-03 -.213E-02 0.804E-02
 -----------------------------------------------------------------------------------------------
   0.212E+02 0.129E+02 -.351E+01   0.568E-13 -.114E-12 0.568E-13   -.212E+02 -.129E+02 0.350E+01   0.358E-02 -.834E-03 0.151E-01
 
 
 POSITION                                       TOTAL-FORCE (eV/Angst)
 -----------------------------------------------------------------------------------
      5.17790      6.79934      8.72353         0.003670      0.000143      0.007699
      5.18343      8.13120      8.85870         0.006232     -0.000133      0.011102
      6.40042      8.95682      8.54849        -0.001673      0.004880     -0.006967
      6.37412      5.99558      8.30278        -0.006703     -0.003823     -0.016499
      7.58755      6.82470      7.82400         0.006560      0.001091      0.016222
      7.21470      8.27122      7.42846         0.000162     -0.004612      0.001150
      8.41529      9.03652      7.10442         0.009410      0.005059     -0.008176
      4.26256      6.23790      8.93307         0.006019      0.001660      0.021714
      6.69125      5.37310      9.15877        -0.016808     -0.043755     -0.033871
      6.06742      5.27160      7.52934        -0.019680      0.024363     -0.047396
      4.27786      8.65296      9.17861         0.011511     -0.002056      0.029904
      7.04088      9.06634      9.44246         0.000562      0.027752     -0.011027
      6.12152      9.97634      8.24434        -0.013492     -0.001799     -0.023704
      8.06564      6.33043      6.96583         0.038498     -0.000668      0.026768
      8.35032      6.87956      8.61495        -0.013176      0.012649      0.041699
      6.58176      8.24956      6.52315         0.000985     -0.016579     -0.001700
      9.38381      9.64810      6.87579        -0.012076     -0.004175     -0.006919
 -----------------------------------------------------------------------------------
    total drift:                                0.005280      0.006007      0.007764


--------------------------------------------------------------------------------------------------------



  FREE ENERGIE OF THE ION-ELECTRON SYSTEM (eV)
  ---------------------------------------------------
  free  energy   TOTEN  =      -103.70342062 eV

  energy  without entropy=     -103.70342062  energy(sigma->0) =     -103.70342062
 
 d Force = 0.1247251E-03[ 0.121E-03, 0.128E-03]  d Energy = 0.1261547E-03-0.143E-05
 d Force = 0.8088309E-02[ 0.814E-02, 0.804E-02]  d Ewald  = 0.8088309E-02 0.719E-10


--------------------------------------------------------------------------------------------------------


    POTLOK:  cpu time      0.9534: real time      1.0109


--------------------------------------------------------------------------------------------------------


 NEB: the previous image is higher in energy: T
 NEB: the next image is higher in energy    : F
 NEB: only prev energy greater

 NEB: Tangent
 ----------------------------------------------
      0.02601      0.00109      0.03705
      0.03414     -0.00098      0.05525
     -0.00292      0.03473     -0.01129
     -0.03156     -0.03451     -0.08555
      0.09681      0.02369      0.21193
      0.05031     -0.02283      0.06139
      0.03393     -0.00256      0.04631
      0.02973      0.00943      0.08805
     -0.14027     -0.33769     -0.17974
     -0.09716      0.16117     -0.33537
      0.04657     -0.01617      0.12859
     -0.01813      0.15562     -0.00441
     -0.05993      0.00034     -0.10569
      0.40939      0.00176      0.31495
     -0.08011      0.14145      0.46727
      0.07996     -0.12562      0.03318
      0.02036      0.01649      0.03835

 NEB: forces: par spring, perp REAL, dneb     0.022092    0.050293    0.000000
 NEB: distance to prev, next image, angle between     1.316978    1.321397  147.637037
 NEB: projections on to tangent (spring, REAL)     0.022092    0.114616

 stress matrix after NEB project (eV)
     -1.95582      0.02466     -0.02132
      0.02466     -1.85454      0.02729
     -0.02132      0.02729     -1.92265
  FORCES: max atom, RMS     0.021713    0.013323
  FORCE total and by dimension    0.054931    0.018006
  Stress total and by dimension    3.311306    1.955818
 Quasi-Newton relaxation of ions (Broydens 2nd method)
  g(Force)  = 0.386E-03   g(Stress)= 0.000E+00

 retain information from N=  2 steps
 eigenvalues of (default step * inverse Hessian matrix)
  average eigenvalue of G=   4.3533
 eigenvalue spectrum of G is  4.3533  4.3533


--------------------------------------------------------------------------------------------------------


  
 reached required accuracy - stopping structural energy minimisation
     LOOP+:  cpu time     14.0410: real time     18.2040
    4ORBIT:  cpu time      0.0000: real time      0.0000

 total amount of memory used by VASP MPI-rank0   277942. kBytes
=======================================================================

   base      :      30000. kBytes
   nonl-proj :      15437. kBytes
   fftplans  :      71598. kBytes
   grid      :     152883. kBytes
   one-center:         26. kBytes
   wavefun   :       7998. kBytes
 
  
  
 General timing and accounting informations for this job:
 ========================================================
  
                  Total CPU time used (sec):     2258.692
                            User time (sec):     2110.736
                          System time (sec):      147.956
                         Elapsed time (sec):     3151.787
  
                   Maximum memory used (kb):     1136444.
                   Average memory used (kb):          N/A
  
                          Minor page faults:     12376366
                          Major page faults:          224
                 Voluntary context switches:         1541
