 vasp.6.3.2 27Jun22 (build Oct 05 2023 17:59:42) gamma-only                     
  
 POSCAR found type information on POSCAR C H N 
 07/POSCAR found :  3 types and      17 ions
 scaLAPACK will be used
 -----------------------------------------------------------------------------
|                                                                             |
|               ----> ADVICE to this user running VASP <----                  |
|                                                                             |
|     You have a (more or less) 'large supercell' and for larger cells it     |
|     might be more efficient to use real-space projection operators.         |
|     Therefore, try LREAL= Auto in the INCAR file.                           |
|     Mind: For very accurate calculation, you might also keep the            |
|     reciprocal projection scheme (i.e. LREAL=.FALSE.).                      |
|                                                                             |
 -----------------------------------------------------------------------------

 LDA part: xc-table for Pade appr. of Perdew
 POSCAR found type information on POSCAR C H N 
 00/POSCAR found :  3 types and      17 ions
 POSCAR found type information on POSCAR C H N 
 10/POSCAR found :  3 types and      17 ions
 Jacobian:    24.6978413598026     
 POSCAR found type information on POSCAR C H N 
 00/POSCAR found :  3 types and      17 ions
 POSCAR found type information on POSCAR C H N 
 10/POSCAR found :  3 types and      17 ions
 POSCAR, INCAR and KPOINTS ok, starting setup
 FFT: planning ... GRIDC
 FFT: planning ... GRID_SOFT
 FFT: planning ... GRID
 WAVECAR not read
 entering main loop
       N       E                     dE             d eps       ncg     rms          rms(c)
DAV:   1     0.340358046052E+03    0.34036E+03   -0.10138E+04    76   0.668E+02
DAV:   2     0.590507117384E+02   -0.28131E+03   -0.26975E+03    96   0.136E+02
DAV:   3    -0.932356571012E+02   -0.15229E+03   -0.15174E+03    72   0.109E+02
DAV:   4    -0.113990582569E+03   -0.20755E+02   -0.20721E+02    88   0.558E+01
DAV:   5    -0.114250582446E+03   -0.26000E+00   -0.25875E+00    80   0.789E+00    0.170E+01
RMM:   6    -0.105815815650E+03    0.84348E+01   -0.11432E+01    60   0.138E+01    0.925E+00
RMM:   7    -0.103726932488E+03    0.20889E+01   -0.10457E+01    60   0.129E+01    0.398E+00
RMM:   8    -0.103545038592E+03    0.18189E+00   -0.72999E-01    60   0.440E+00    0.240E+00
RMM:   9    -0.103441322434E+03    0.10372E+00   -0.46104E-01    60   0.296E+00    0.679E-01
RMM:  10    -0.103437957875E+03    0.33646E-02   -0.78531E-02    64   0.125E+00    0.318E-01
RMM:  11    -0.103448891813E+03   -0.10934E-01   -0.12462E-01    60   0.130E+00    0.443E-01
RMM:  12    -0.103443082973E+03    0.58088E-02   -0.10866E-02    60   0.537E-01    0.270E-01
RMM:  13    -0.103449638393E+03   -0.65554E-02   -0.29809E-02    60   0.647E-01    0.127E-01
RMM:  14    -0.103452421242E+03   -0.27828E-02   -0.55733E-03    61   0.322E-01    0.830E-02
RMM:  15    -0.103463163022E+03   -0.10742E-01   -0.36525E-03    61   0.218E-01    0.363E-02
RMM:  16    -0.103466408895E+03   -0.32459E-02   -0.11716E-03    66   0.118E-01    0.334E-02
RMM:  17    -0.103469989625E+03   -0.35807E-02   -0.72301E-04    60   0.966E-02    0.145E-02
RMM:  18    -0.103470870447E+03   -0.88082E-03   -0.26974E-04    59   0.511E-02    0.154E-02
RMM:  19    -0.103471572997E+03   -0.70255E-03   -0.16145E-04    60   0.467E-02    0.168E-02
RMM:  20    -0.103471689620E+03   -0.11662E-03   -0.29926E-05    45   0.209E-02    0.729E-03
RMM:  21    -0.103471815809E+03   -0.12619E-03   -0.25519E-05    43   0.188E-02    0.336E-03
RMM:  22    -0.103471853009E+03   -0.37200E-04   -0.37041E-06    39   0.912E-03    0.221E-03
RMM:  23    -0.103471879628E+03   -0.26619E-04   -0.15958E-06    38   0.536E-03    0.118E-03
RMM:  24    -0.103471888431E+03   -0.88034E-05   -0.38629E-07    24   0.346E-03
   1 F= -.10366876E+03 E0= -.10366876E+03  d E =-.103669E+03
 BRION: g(F)=  0.400E+00 g(S)=  0.000E+00
 bond charge predicted
       N       E                     dE             d eps       ncg     rms          rms(c)
DAV:   1    -0.103482390786E+03   -0.10511E-01   -0.19852E-01    82   0.268E+00    0.112E-01
RMM:   2    -0.103482442304E+03   -0.51518E-04   -0.32671E-03    60   0.328E-01    0.707E-02
RMM:   3    -0.103482403300E+03    0.39004E-04   -0.91451E-04    60   0.166E-01    0.205E-02
RMM:   4    -0.103482419241E+03   -0.15941E-04   -0.15291E-04    61   0.752E-02    0.150E-02
RMM:   5    -0.103482425166E+03   -0.59247E-05   -0.45367E-05    49   0.373E-02
   2 F= -.10367934E+03 E0= -.10367934E+03  d E =-.105799E-01
 BRION: g(F)=  0.319E+00 g(S)=  0.000E+00 retain N=  1 mean eig= 1.51
 eig:   1.513
 bond charge predicted
       N       E                     dE             d eps       ncg     rms          rms(c)
DAV:   1    -0.103490444509E+03   -0.80253E-02   -0.15645E-01    66   0.244E+00    0.120E-01
RMM:   2    -0.103490409526E+03    0.34984E-04   -0.23701E-03    60   0.306E-01    0.679E-02
RMM:   3    -0.103490364357E+03    0.45168E-04   -0.60956E-04    60   0.137E-01    0.270E-02
RMM:   4    -0.103490382778E+03   -0.18421E-04   -0.19201E-04    65   0.725E-02    0.200E-02
RMM:   5    -0.103490385372E+03   -0.25937E-05   -0.24094E-05    41   0.280E-02
   3 F= -.10368738E+03 E0= -.10368738E+03  d E =-.803974E-02
 BRION: g(F)=  0.289E+00 g(S)=  0.000E+00 retain N=  2 mean eig= 1.51
 eig:   1.511  1.511
 bond charge predicted
       N       E                     dE             d eps       ncg     rms          rms(c)
DAV:   1    -0.103493971451E+03   -0.35887E-02   -0.57467E-02    72   0.144E+00    0.729E-02
RMM:   2    -0.103493960901E+03    0.10550E-04   -0.10637E-03    60   0.181E-01    0.424E-02
RMM:   3    -0.103493942384E+03    0.18518E-04   -0.24263E-04    60   0.856E-02    0.201E-02
RMM:   4    -0.103493948550E+03   -0.61665E-05   -0.79391E-05    58   0.470E-02
   4 F= -.10369095E+03 E0= -.10369095E+03  d E =-.357417E-02
 BRION: g(F)=  0.271E+00 g(S)=  0.000E+00 retain N=  3 mean eig= 1.67
 eig:   1.936  1.936  1.130
 bond charge predicted
       N       E                     dE             d eps       ncg     rms          rms(c)
DAV:   1    -0.103496004700E+03   -0.20623E-02   -0.23209E-02    60   0.927E-01    0.453E-02
RMM:   2    -0.103496003232E+03    0.14679E-05   -0.36385E-04    60   0.120E-01    0.264E-02
RMM:   3    -0.103495998644E+03    0.45885E-05   -0.81645E-05    60   0.515E-02
   5 F= -.10369303E+03 E0= -.10369303E+03  d E =-.208347E-02
 BRION: g(F)=  0.251E+00 g(S)=  0.000E+00 retain N=  4 mean eig= 2.61
 eig:   3.423  3.423  2.476  1.116
 bond charge predicted
       N       E                     dE             d eps       ncg     rms          rms(c)
DAV:   1    -0.103498654829E+03   -0.26516E-02   -0.95111E-02    60   0.184E+00    0.767E-02
RMM:   2    -0.103498717710E+03   -0.62880E-04   -0.14632E-03    60   0.229E-01    0.468E-02
RMM:   3    -0.103498716251E+03    0.14588E-05   -0.31342E-04    60   0.104E-01    0.194E-02
RMM:   4    -0.103498725903E+03   -0.96520E-05   -0.77064E-05    61   0.502E-02
   6 F= -.10369578E+03 E0= -.10369578E+03  d E =-.274201E-02
 BRION: g(F)=  0.182E+00 g(S)=  0.000E+00 retain N=  3 mean eig= 2.85
 eig:   5.704  1.420  1.420
 bond charge predicted
       N       E                     dE             d eps       ncg     rms          rms(c)
DAV:   1    -0.103502174902E+03   -0.34587E-02   -0.23096E-01    60   0.286E+00    0.129E-01
RMM:   2    -0.103502289159E+03   -0.11426E-03   -0.31609E-03    60   0.342E-01    0.751E-02
RMM:   3    -0.103502292396E+03   -0.32370E-05   -0.71989E-04    60   0.152E-01    0.271E-02
RMM:   4    -0.103502313795E+03   -0.21399E-04   -0.17350E-04    66   0.723E-02    0.190E-02
RMM:   5    -0.103502316710E+03   -0.29153E-05   -0.24340E-05    42   0.295E-02
   7 F= -.10369939E+03 E0= -.10369939E+03  d E =-.361412E-02
 BRION: g(F)=  0.122E+00 g(S)=  0.000E+00 retain N=  4 mean eig= 4.69
 eig:   7.853  7.853  1.531  1.531
 bond charge predicted
       N       E                     dE             d eps       ncg     rms          rms(c)
DAV:   1    -0.103503137447E+03   -0.82365E-03   -0.35071E-02    60   0.111E+00    0.497E-02
RMM:   2    -0.103503156310E+03   -0.18863E-04   -0.47263E-04    60   0.130E-01    0.289E-02
RMM:   3    -0.103503159145E+03   -0.28345E-05   -0.10255E-04    60   0.582E-02    0.108E-02
RMM:   4    -0.103503162909E+03   -0.37649E-05   -0.21764E-05    42   0.275E-02
   8 F= -.10370022E+03 E0= -.10370022E+03  d E =-.833927E-03
 BRION: g(F)=  0.892E-01 g(S)=  0.000E+00 retain N=  2 mean eig= 4.24
 eig:   4.240  4.240
 bond charge predicted
       N       E                     dE             d eps       ncg     rms          rms(c)
DAV:   1    -0.103504072066E+03   -0.91292E-03   -0.68757E-02    60   0.157E+00    0.720E-02
RMM:   2    -0.103504104689E+03   -0.32622E-04   -0.95352E-04    60   0.188E-01    0.428E-02
RMM:   3    -0.103504105836E+03   -0.11468E-05   -0.18997E-04    60   0.808E-02    0.157E-02
RMM:   4    -0.103504112251E+03   -0.64157E-05   -0.52167E-05    55   0.401E-02
   9 F= -.10370118E+03 E0= -.10370118E+03  d E =-.950596E-03
 BRION: g(F)=  0.700E-01 g(S)=  0.000E+00 retain N=  2 mean eig= 3.16
 eig:   3.165  3.165
 bond charge predicted
       N       E                     dE             d eps       ncg     rms          rms(c)
DAV:   1    -0.103504305565E+03   -0.19973E-03   -0.29854E-02    60   0.102E+00    0.494E-02
RMM:   2    -0.103504320411E+03   -0.14846E-04   -0.48496E-04    60   0.124E-01    0.301E-02
RMM:   3    -0.103504319029E+03    0.13813E-05   -0.86968E-05    56   0.541E-02
  10 F= -.10370135E+03 E0= -.10370135E+03  d E =-.178963E-03
 BRION: g(F)=  0.602E-01 g(S)=  0.000E+00 retain N=  3 mean eig= 3.98
 eig:   5.289  5.289  1.352
 bond charge predicted
       N       E                     dE             d eps       ncg     rms          rms(c)
DAV:   1    -0.103504480914E+03   -0.16050E-03   -0.51688E-02    60   0.135E+00    0.648E-02
RMM:   2    -0.103504505128E+03   -0.24214E-04   -0.76653E-04    60   0.165E-01    0.394E-02
RMM:   3    -0.103504505647E+03   -0.51931E-06   -0.14336E-04    60   0.708E-02    0.154E-02
RMM:   4    -0.103504510529E+03   -0.48817E-05   -0.46943E-05    50   0.373E-02
  11 F= -.10370154E+03 E0= -.10370154E+03  d E =-.186788E-03
 BRION: g(F)=  0.509E-01 g(S)=  0.000E+00 retain N=  3 mean eig= 5.48
 eig:   7.382  7.382  1.676
 bond charge predicted
       N       E                     dE             d eps       ncg     rms          rms(c)
DAV:   1    -0.103504478697E+03    0.26950E-04   -0.89788E-02    60   0.174E+00    0.794E-02
RMM:   2    -0.103504533583E+03   -0.54886E-04   -0.10860E-03    60   0.193E-01    0.484E-02
RMM:   3    -0.103504542411E+03   -0.88281E-05   -0.20553E-04    61   0.836E-02    0.155E-02
RMM:   4    -0.103504547845E+03   -0.54338E-05   -0.43846E-05    49   0.387E-02
  12 F= -.10370153E+03 E0= -.10370153E+03  d E =0.862451E-05
 BRION: g(F)=  0.418E-01 g(S)=  0.000E+00 retain N=  2 mean eig= 5.01
 eig:   5.010  5.010
 bond charge predicted
       N       E                     dE             d eps       ncg     rms          rms(c)
DAV:   1    -0.103504415519E+03    0.12689E-03   -0.31629E-02    60   0.103E+00    0.468E-02
RMM:   2    -0.103504435139E+03   -0.19621E-04   -0.35367E-04    60   0.112E-01    0.289E-02
RMM:   3    -0.103504439842E+03   -0.47030E-05   -0.67599E-05    56   0.487E-02
  13 F= -.10370140E+03 E0= -.10370140E+03  d E =0.131603E-03
 BRION: g(F)=  0.391E-01 g(S)=  0.000E+00 retain N=  3 mean eig= 4.95
 eig:   6.647  6.647  1.549
 bond charge predicted
       N       E                     dE             d eps       ncg     rms          rms(c)
DAV:   1    -0.103504234649E+03    0.20049E-03   -0.46079E-02    60   0.124E+00    0.560E-02
RMM:   2    -0.103504266044E+03   -0.31394E-04   -0.54499E-04    60   0.139E-01    0.347E-02
RMM:   3    -0.103504273046E+03   -0.70021E-05   -0.10384E-04    60   0.603E-02    0.757E-03
RMM:   4    -0.103504276035E+03   -0.29890E-05   -0.23983E-05    42   0.279E-02
  14 F= -.10370121E+03 E0= -.10370121E+03  d E =0.188381E-03
 BRION: g(F)=  0.314E-01 g(S)=  0.000E+00 retain N=  2 mean eig= 3.20
 eig:   3.200  3.200
 bond charge predicted
       N       E                     dE             d eps       ncg     rms          rms(c)
DAV:   1    -0.103504050264E+03    0.22278E-03   -0.30922E-02    60   0.102E+00    0.480E-02
RMM:   2    -0.103504066072E+03   -0.15807E-04   -0.38356E-04    60   0.114E-01    0.295E-02
RMM:   3    -0.103504067442E+03   -0.13701E-05   -0.71081E-05    54   0.490E-02
  15 F= -.10370097E+03 E0= -.10370097E+03  d E =0.244521E-03
 BRION: g(F)=  0.287E-01 g(S)=  0.000E+00 retain N=  3 mean eig= 4.74
 eig:   6.391  6.391  1.425
 bond charge predicted
       N       E                     dE             d eps       ncg     rms          rms(c)
DAV:   1    -0.103503834483E+03    0.23159E-03   -0.36832E-02    60   0.112E+00    0.526E-02
RMM:   2    -0.103503853996E+03   -0.19513E-04   -0.47451E-04    60   0.127E-01    0.323E-02
RMM:   3    -0.103503856545E+03   -0.25492E-05   -0.91372E-05    57   0.557E-02
  16 F= -.10370074E+03 E0= -.10370074E+03  d E =0.229215E-03
 BRION: g(F)=  0.260E-01 g(S)=  0.000E+00 retain N=  3 mean eig= 5.21
 eig:   6.944  6.944  1.745
 bond charge predicted
       N       E                     dE             d eps       ncg     rms          rms(c)
DAV:   1    -0.103503516660E+03    0.33734E-03   -0.52649E-02    60   0.132E+00    0.604E-02
RMM:   2    -0.103503547628E+03   -0.30969E-04   -0.57495E-04    60   0.142E-01    0.372E-02
RMM:   3    -0.103503554267E+03   -0.66388E-05   -0.11163E-04    60   0.619E-02    0.757E-03
RMM:   4    -0.103503557215E+03   -0.29480E-05   -0.24397E-05    43   0.284E-02
  17 F= -.10370040E+03 E0= -.10370040E+03  d E =0.339779E-03
 BRION: g(F)=  0.230E-01 g(S)=  0.000E+00 retain N=  2 mean eig= 5.28
 eig:   5.279  5.279
 bond charge predicted
       N       E                     dE             d eps       ncg     rms          rms(c)
DAV:   1    -0.103503259663E+03    0.29460E-03   -0.33265E-02    60   0.105E+00    0.475E-02
RMM:   2    -0.103503278685E+03   -0.19021E-04   -0.34871E-04    60   0.110E-01    0.292E-02
RMM:   3    -0.103503283052E+03   -0.43668E-05   -0.66303E-05    55   0.477E-02
  18 F= -.10370010E+03 E0= -.10370010E+03  d E =0.303872E-03
 BRION: g(F)=  0.219E-01 g(S)=  0.000E+00 retain N=  3 mean eig= 5.72
 eig:   7.537  7.537  2.078
 bond charge predicted
       N       E                     dE             d eps       ncg     rms          rms(c)
DAV:   1    -0.103502948506E+03    0.33018E-03   -0.35784E-02    60   0.109E+00    0.493E-02
RMM:   2    -0.103502971305E+03   -0.22799E-04   -0.39968E-04    60   0.118E-01    0.305E-02
RMM:   3    -0.103502976612E+03   -0.53073E-05   -0.75831E-05    56   0.512E-02
  19 F= -.10369976E+03 E0= -.10369976E+03  d E =0.333447E-03
 BRION: g(F)=  0.194E-01 g(S)=  0.000E+00 retain N=  2 mean eig= 3.93
 eig:   3.931  3.931
 bond charge predicted
       N       E                     dE             d eps       ncg     rms          rms(c)
DAV:   1    -0.103502563897E+03    0.40741E-03   -0.53595E-02    60   0.134E+00    0.618E-02
RMM:   2    -0.103502593491E+03   -0.29594E-04   -0.63576E-04    60   0.148E-01    0.381E-02
RMM:   3    -0.103502597460E+03   -0.39698E-05   -0.11981E-04    59   0.641E-02    0.113E-02
RMM:   4    -0.103502600781E+03   -0.33206E-05   -0.29536E-05    47   0.308E-02
  20 F= -.10369934E+03 E0= -.10369934E+03  d E =0.420769E-03
 BRION: g(F)=  0.179E-01 g(S)=  0.000E+00 retain N=  3 mean eig= 5.25
 eig:   7.016  7.016  1.717
 bond charge predicted
       N       E                     dE             d eps       ncg     rms          rms(c)
DAV:   1    -0.103502238427E+03    0.35903E-03   -0.47155E-02    60   0.126E+00    0.574E-02
RMM:   2    -0.103502265008E+03   -0.26581E-04   -0.55707E-04    60   0.137E-01    0.354E-02
RMM:   3    -0.103502269179E+03   -0.41718E-05   -0.10389E-04    59   0.593E-02    0.104E-02
RMM:   4    -0.103502272077E+03   -0.28978E-05   -0.24903E-05    44   0.280E-02
  21 F= -.10369899E+03 E0= -.10369899E+03  d E =0.352763E-03
 BRION: g(F)=  0.158E-01 g(S)=  0.000E+00 retain N=  3 mean eig= 5.91
 eig:   7.979  7.979  1.775
 bond charge predicted
       N       E                     dE             d eps       ncg     rms          rms(c)
DAV:   1    -0.103501806620E+03    0.46256E-03   -0.65587E-02    60   0.147E+00    0.665E-02
RMM:   2    -0.103501844118E+03   -0.37498E-04   -0.69392E-04    60   0.155E-01    0.409E-02
RMM:   3    -0.103501851595E+03   -0.74772E-05   -0.13073E-04    61   0.668E-02    0.813E-03
RMM:   4    -0.103501854840E+03   -0.32450E-05   -0.27565E-05    45   0.301E-02
  22 F= -.10369853E+03 E0= -.10369853E+03  d E =0.459823E-03
 BRION: g(F)=  0.140E-01 g(S)=  0.000E+00 retain N=  2 mean eig= 6.62
 eig:   6.620  6.620
 bond charge predicted
       N       E                     dE             d eps       ncg     rms          rms(c)
DAV:   1    -0.103501419774E+03    0.43182E-03   -0.55491E-02    60   0.135E+00    0.604E-02
RMM:   2    -0.103501453008E+03   -0.33234E-04   -0.59938E-04    60   0.143E-01    0.372E-02
RMM:   3    -0.103501459489E+03   -0.64810E-05   -0.11168E-04    59   0.620E-02    0.750E-03
RMM:   4    -0.103501462309E+03   -0.28197E-05   -0.23616E-05    43   0.279E-02
  23 F= -.10369810E+03 E0= -.10369810E+03  d E =0.423867E-03
 BRION: g(F)=  0.130E-01 g(S)=  0.000E+00 retain N=  1 mean eig= 4.17
 eig:   4.170
 bond charge predicted
       N       E                     dE             d eps       ncg     rms          rms(c)
DAV:   1    -0.103501490524E+03   -0.31035E-04   -0.78461E-04    82   0.153E-01    0.130E-02
RMM:   2    -0.103501488842E+03    0.16821E-05   -0.19433E-05    42   0.215E-02
  24 F= -.10369813E+03 E0= -.10369813E+03  d E =-.224359E-04
 BRION: g(F)=  0.122E-01 g(S)=  0.000E+00 retain N=  1 mean eig= 0.58
 eig:   0.580
 bond charge predicted
       N       E                     dE             d eps       ncg     rms          rms(c)
DAV:   1    -0.103501428644E+03    0.61880E-04   -0.24507E-03    66   0.287E-01    0.132E-02
RMM:   2    -0.103501430894E+03   -0.22497E-05   -0.36656E-05    45   0.342E-02
  25 F= -.10369807E+03 E0= -.10369807E+03  d E =0.609467E-04
 BRION: g(F)=  0.113E-01 g(S)=  0.000E+00 retain N=  1 mean eig= 0.80
 eig:   0.795
 bond charge predicted
       N       E                     dE             d eps       ncg     rms          rms(c)
DAV:   1    -0.103501373021E+03    0.55623E-04   -0.25066E-03    60   0.291E-01    0.155E-02
RMM:   2    -0.103501374207E+03   -0.11857E-05   -0.32065E-05    43   0.326E-02
  26 F= -.10369800E+03 E0= -.10369800E+03  d E =0.649484E-04
 BRION: g(F)=  0.106E-01 g(S)=  0.000E+00 retain N=  2 mean eig= 3.34
 eig:   3.341  3.341
 bond charge predicted
       N       E                     dE             d eps       ncg     rms          rms(c)
DAV:   1    -0.103499843503E+03    0.15295E-02   -0.57760E-01    60   0.436E+00    0.191E-01
RMM:   2    -0.103500214504E+03   -0.37100E-03   -0.63223E-03    60   0.463E-01    0.118E-01
RMM:   3    -0.103500277825E+03   -0.63321E-04   -0.11549E-03    61   0.200E-01    0.238E-02
RMM:   4    -0.103500303451E+03   -0.25626E-04   -0.23619E-04    62   0.893E-02    0.105E-02
RMM:   5    -0.103500311398E+03   -0.79466E-05   -0.69882E-05    52   0.432E-02
  27 F= -.10369684E+03 E0= -.10369684E+03  d E =0.115796E-02
 BRION: g(F)=  0.592E-02 g(S)=  0.000E+00
 BRIONS problems: POTIM should be increased
 retain N=  1 mean eig=13.73
 eig:  13.731
 bond charge predicted
       N       E                     dE             d eps       ncg     rms          rms(c)
DAV:   1    -0.103500442240E+03   -0.13879E-03   -0.80026E-03    60   0.523E-01    0.295E-02
RMM:   2    -0.103500444425E+03   -0.21843E-05   -0.14103E-04    55   0.656E-02    0.167E-02
RMM:   3    -0.103500443845E+03    0.57940E-06   -0.22682E-05    43   0.273E-02
  28 F= -.10369697E+03 E0= -.10369697E+03  d E =-.131273E-03
 BRION: g(F)=  0.654E-02 g(S)=  0.000E+00 retain N=  1 mean eig= 0.57
 eig:   0.567
 bond charge predicted
       N       E                     dE             d eps       ncg     rms          rms(c)
DAV:   1    -0.103500368216E+03    0.76209E-04   -0.59561E-03    60   0.446E-01    0.202E-02
RMM:   2    -0.103500371965E+03   -0.37492E-05   -0.81619E-05    53   0.512E-02
  29 F= -.10369690E+03 E0= -.10369690E+03  d E =0.770328E-04
 BRION: g(F)=  0.384E-02 g(S)=  0.000E+00 retain N=  1 mean eig= 0.76
 eig:   0.761
 bond charge predicted
       N       E                     dE             d eps       ncg     rms          rms(c)
DAV:   1    -0.103500330865E+03    0.37351E-04   -0.20659E-03    66   0.263E-01    0.153E-02
RMM:   2    -0.103500331870E+03   -0.10054E-05   -0.27860E-05    43   0.301E-02
  30 F= -.10369685E+03 E0= -.10369685E+03  d E =0.457671E-04
 BRION: g(F)=  0.366E-02 g(S)=  0.000E+00 retain N=  2 mean eig= 2.22
 eig:   0.950  3.485
 bond charge predicted
       N       E                     dE             d eps       ncg     rms          rms(c)
DAV:   1    -0.103500232015E+03    0.98850E-04   -0.11855E-02    60   0.626E-01    0.276E-02
RMM:   2    -0.103500240191E+03   -0.81763E-05   -0.14330E-04    59   0.686E-02    0.172E-02
RMM:   3    -0.103500242105E+03   -0.19134E-05   -0.25872E-05    43   0.300E-02
  31 F= -.10369674E+03 E0= -.10369674E+03  d E =0.107376E-03
 BRION: g(F)=  0.362E-02 g(S)=  0.000E+00 retain N=  3 mean eig= 3.73
 eig:   0.911  5.134  5.134
 bond charge predicted
       N       E                     dE             d eps       ncg     rms          rms(c)
DAV:   1    -0.103499746347E+03    0.49384E-03   -0.15293E-01    60   0.224E+00    0.944E-02
RMM:   2    -0.103499860092E+03   -0.11375E-03   -0.18243E-03    60   0.246E-01    0.583E-02
RMM:   3    -0.103499882297E+03   -0.22205E-04   -0.31614E-04    61   0.106E-01    0.138E-02
RMM:   4    -0.103499889580E+03   -0.72822E-05   -0.65549E-05    52   0.477E-02
  32 F= -.10369634E+03 E0= -.10369634E+03  d E =0.406853E-03
 BRION: g(F)=  0.280E-02 g(S)=  0.000E+00
 BRIONS problems: POTIM should be increased
 retain N=  1 mean eig=11.53
 eig:  11.535
 bond charge predicted
       N       E                     dE             d eps       ncg     rms          rms(c)
DAV:   1    -0.103499878087E+03    0.42108E-05   -0.18090E-03    66   0.247E-01    0.121E-02
RMM:   2    -0.103499879880E+03   -0.17930E-05   -0.34782E-05    45   0.331E-02
  33 F= -.10369633E+03 E0= -.10369633E+03  d E =0.116298E-04
 BRION: g(F)=  0.290E-02 g(S)=  0.000E+00 retain N=  1 mean eig= 0.47
 eig:   0.465
 bond charge predicted
       N       E                     dE             d eps       ncg     rms          rms(c)
DAV:   1    -0.103499893240E+03   -0.15153E-04   -0.13902E-04    82   0.667E-02    0.552E-03
RMM:   2    -0.103499893450E+03   -0.20939E-06   -0.38265E-06    37   0.102E-02
  34 F= -.10369634E+03 E0= -.10369634E+03  d E =-.113087E-04
 BRION: g(F)=  0.261E-02 g(S)=  0.000E+00 retain N=  1 mean eig= 0.48
 eig:   0.484
 bond charge predicted
       N       E                     dE             d eps       ncg     rms          rms(c)
DAV:   1    -0.103499898537E+03   -0.52969E-05   -0.74164E-04    66   0.156E-01    0.735E-03
RMM:   2    -0.103499899265E+03   -0.72751E-06   -0.97047E-06    38   0.175E-02
  35 F= -.10369634E+03 E0= -.10369634E+03  d E =-.233055E-05
 BRION: g(F)=  0.255E-02 g(S)=  0.000E+00 retain N=  2 mean eig= 1.89
 eig:   0.319  3.464
 bond charge predicted
       N       E                     dE             d eps       ncg     rms          rms(c)
DAV:   1    -0.103499875645E+03    0.22892E-04   -0.45091E-02    60   0.121E+00    0.501E-02
RMM:   2    -0.103499909906E+03   -0.34261E-04   -0.56303E-04    60   0.135E-01    0.309E-02
RMM:   3    -0.103499916921E+03   -0.70143E-05   -0.93955E-05    57   0.582E-02
  36 F= -.10369633E+03 E0= -.10369633E+03  d E =0.965575E-05
 BRION: g(F)=  0.271E-02 g(S)=  0.000E+00 retain N=  3 mean eig= 4.79
 eig:   0.437  6.959  6.959
 bond charge predicted
       N       E                     dE             d eps       ncg     rms          rms(c)
DAV:   1    -0.103499904519E+03    0.53871E-05   -0.20519E-02    60   0.820E-01    0.336E-02
RMM:   2    -0.103499923180E+03   -0.18661E-04   -0.28458E-04    60   0.961E-02    0.212E-02
RMM:   3    -0.103499927561E+03   -0.43814E-05   -0.49319E-05    50   0.421E-02
  37 F= -.10369632E+03 E0= -.10369632E+03  d E =0.620472E-05
 BRION: g(F)=  0.253E-02 g(S)=  0.000E+00 retain N=  2 mean eig= 4.13
 eig:   4.130  4.130
 bond charge predicted
       N       E                     dE             d eps       ncg     rms          rms(c)
DAV:   1    -0.103499930454E+03   -0.72745E-05   -0.91789E-03    60   0.546E-01    0.223E-02
RMM:   2    -0.103499937051E+03   -0.65963E-05   -0.10416E-04    58   0.577E-02    0.133E-02
RMM:   3    -0.103499938922E+03   -0.18716E-05   -0.16202E-05    41   0.239E-02
  38 F= -.10369635E+03 E0= -.10369635E+03  d E =-.217821E-04
 BRION: g(F)=  0.249E-02 g(S)=  0.000E+00 retain N=  2 mean eig= 2.94
 eig:   2.939  2.939
 bond charge predicted
       N       E                     dE             d eps       ncg     rms          rms(c)
DAV:   1    -0.103499942380E+03   -0.53296E-05   -0.12948E-02    60   0.648E-01    0.258E-02
RMM:   2    -0.103499952253E+03   -0.98732E-05   -0.15793E-04    60   0.710E-02    0.156E-02
RMM:   3    -0.103499954164E+03   -0.19111E-05   -0.25584E-05    43   0.301E-02
  39 F= -.10369635E+03 E0= -.10369635E+03  d E =-.180760E-05
 BRION: g(F)=  0.232E-02 g(S)=  0.000E+00
 BRIONS problems: POTIM should be increased
 retain N=  1 mean eig= 8.88
 eig:   8.881
 bond charge predicted
       N       E                     dE             d eps       ncg     rms          rms(c)
DAV:   1    -0.103499957805E+03   -0.55520E-05   -0.20132E-02    60   0.811E-01    0.330E-02
RMM:   2    -0.103499974474E+03   -0.16669E-04   -0.26591E-04    60   0.931E-02    0.206E-02
RMM:   3    -0.103499977902E+03   -0.34277E-05   -0.45002E-05    49   0.403E-02
  40 F= -.10369635E+03 E0= -.10369635E+03  d E =-.489381E-05
 BRION: g(F)=  0.235E-02 g(S)=  0.000E+00 retain N=  1 mean eig= 5.42
 eig:   5.424
 bond charge predicted
       N       E                     dE             d eps       ncg     rms          rms(c)
DAV:   1    -0.103499971534E+03    0.29401E-05   -0.61410E-03    60   0.447E-01    0.180E-02
RMM:   2    -0.103499975888E+03   -0.43539E-05   -0.69182E-05    52   0.472E-02
  41 F= -.10369636E+03 E0= -.10369636E+03  d E =-.936142E-05
 BRION: g(F)=  0.238E-02 g(S)=  0.000E+00 retain N=  1 mean eig= 2.33
 eig:   2.328
 bond charge predicted
       N       E                     dE             d eps       ncg     rms          rms(c)
DAV:   1    -0.103499990590E+03   -0.19056E-04   -0.52419E-03    60   0.409E-01    0.140E-02
RMM:   2    -0.103499995427E+03   -0.48376E-05   -0.63178E-05    50   0.454E-02
  42 F= -.10369637E+03 E0= -.10369637E+03  d E =-.106483E-04
 BRION: g(F)=  0.229E-02 g(S)=  0.000E+00 retain N=  2 mean eig= 6.13
 eig:   6.128  6.128
 bond charge predicted
       N       E                     dE             d eps       ncg     rms          rms(c)
DAV:   1    -0.103500014798E+03   -0.24208E-04   -0.22130E-02    60   0.855E-01    0.369E-02
RMM:   2    -0.103500030418E+03   -0.15620E-04   -0.28586E-04    60   0.964E-02    0.230E-02
RMM:   3    -0.103500033769E+03   -0.33514E-05   -0.49412E-05    50   0.421E-02
  43 F= -.10369639E+03 E0= -.10369639E+03  d E =-.182791E-04
 BRION: g(F)=  0.227E-02 g(S)=  0.000E+00 retain N=  1 mean eig= 5.27
 eig:   5.268
 bond charge predicted
       N       E                     dE             d eps       ncg     rms          rms(c)
DAV:   1    -0.103500040267E+03   -0.98497E-05   -0.14193E-03    66   0.215E-01    0.873E-03
RMM:   2    -0.103500041125E+03   -0.85718E-06   -0.13424E-05    39   0.210E-02
  44 F= -.10369640E+03 E0= -.10369640E+03  d E =-.119719E-04
 BRION: g(F)=  0.229E-02 g(S)=  0.000E+00 retain N=  1 mean eig= 1.20
 eig:   1.204
 bond charge predicted
       N       E                     dE             d eps       ncg     rms          rms(c)
DAV:   1    -0.103500057432E+03   -0.17164E-04   -0.19785E-03    60   0.252E-01    0.894E-03
RMM:   2    -0.103500059349E+03   -0.19174E-05   -0.25554E-05    42   0.286E-02
  45 F= -.10369642E+03 E0= -.10369642E+03  d E =-.131767E-04
 BRION: g(F)=  0.218E-02 g(S)=  0.000E+00 retain N=  2 mean eig= 4.56
 eig:   1.892  7.231
 bond charge predicted
       N       E                     dE             d eps       ncg     rms          rms(c)
DAV:   1    -0.103500107355E+03   -0.49923E-04   -0.15558E-02    60   0.718E-01    0.305E-02
RMM:   2    -0.103500118371E+03   -0.11017E-04   -0.20302E-04    60   0.812E-02    0.189E-02
RMM:   3    -0.103500120599E+03   -0.22273E-05   -0.34719E-05    45   0.353E-02
  46 F= -.10369646E+03 E0= -.10369646E+03  d E =-.429847E-04
 BRION: g(F)=  0.224E-02 g(S)=  0.000E+00 retain N=  3 mean eig= 5.86
 eig:   1.639  7.973  7.973
 bond charge predicted
       N       E                     dE             d eps       ncg     rms          rms(c)
DAV:   1    -0.103500183535E+03   -0.65164E-04   -0.36812E-02    60   0.110E+00    0.440E-02
RMM:   2    -0.103500215016E+03   -0.31480E-04   -0.49351E-04    60   0.127E-01    0.274E-02
RMM:   3    -0.103500221637E+03   -0.66209E-05   -0.81747E-05    56   0.547E-02
  47 F= -.10369654E+03 E0= -.10369654E+03  d E =-.787914E-04
 BRION: g(F)=  0.205E-02 g(S)=  0.000E+00 retain N=  2 mean eig= 6.76
 eig:   6.757  6.757
 bond charge predicted
       N       E                     dE             d eps       ncg     rms          rms(c)
DAV:   1    -0.103500238260E+03   -0.23244E-04   -0.24937E-04    82   0.907E-02    0.481E-03
RMM:   2    -0.103500238488E+03   -0.22844E-06   -0.17566E-06    36   0.786E-03
  48 F= -.10369656E+03 E0= -.10369656E+03  d E =-.190189E-04
 BRION: g(F)=  0.204E-02 g(S)=  0.000E+00 retain N=  2 mean eig= 4.64
 eig:   7.331  1.948
 bond charge predicted
       N       E                     dE             d eps       ncg     rms          rms(c)
DAV:   1    -0.103500278502E+03   -0.40242E-04   -0.27741E-03    60   0.300E-01    0.116E-02
RMM:   2    -0.103500280964E+03   -0.24620E-05   -0.36805E-05    44   0.342E-02
  49 F= -.10369659E+03 E0= -.10369659E+03  d E =-.363229E-04
 BRION: g(F)=  0.197E-02 g(S)=  0.000E+00 retain N=  1 mean eig= 7.11
 eig:   7.111
 bond charge predicted
       N       E                     dE             d eps       ncg     rms          rms(c)
DAV:   1    -0.103500357841E+03   -0.79339E-04   -0.67429E-03    60   0.473E-01    0.203E-02
RMM:   2    -0.103500362852E+03   -0.50105E-05   -0.91186E-05    56   0.540E-02
  50 F= -.10369666E+03 E0= -.10369666E+03  d E =-.721895E-04
 BRION: g(F)=  0.194E-02 g(S)=  0.000E+00 retain N=  1 mean eig= 4.09
 eig:   4.090
 bond charge predicted
       N       E                     dE             d eps       ncg     rms          rms(c)
DAV:   1    -0.103500371864E+03   -0.14023E-04   -0.76077E-05    82   0.494E-02    0.322E-03
RMM:   2    -0.103500372113E+03   -0.24869E-06   -0.77412E-07    30   0.561E-03
  51 F= -.10369668E+03 E0= -.10369668E+03  d E =-.104027E-04
 BRION: g(F)=  0.192E-02 g(S)=  0.000E+00 retain N=  1 mean eig= 0.49
 eig:   0.488
 bond charge predicted
       N       E                     dE             d eps       ncg     rms          rms(c)
DAV:   1    -0.103500402039E+03   -0.30175E-04   -0.48836E-04    66   0.126E-01    0.495E-03
RMM:   2    -0.103500402581E+03   -0.54123E-06   -0.66409E-06    37   0.145E-02
  52 F= -.10369670E+03 E0= -.10369670E+03  d E =-.279890E-04
 BRION: g(F)=  0.185E-02 g(S)=  0.000E+00 retain N=  2 mean eig= 1.58
 eig:   0.976  2.183
 bond charge predicted
       N       E                     dE             d eps       ncg     rms          rms(c)
DAV:   1    -0.103500699130E+03   -0.29709E-03   -0.41869E-02    60   0.117E+00    0.463E-02
RMM:   2    -0.103500734293E+03   -0.35163E-04   -0.56640E-04    60   0.134E-01    0.283E-02
RMM:   3    -0.103500741856E+03   -0.75622E-05   -0.89820E-05    58   0.573E-02
  53 F= -.10369702E+03 E0= -.10369702E+03  d E =-.320171E-03
 BRION: g(F)=  0.165E-02 g(S)=  0.000E+00
 BRIONS problems: POTIM should be increased
 retain N=  1 mean eig= 9.82
 eig:   9.819
 bond charge predicted
       N       E                     dE             d eps       ncg     rms          rms(c)
DAV:   1    -0.103500757929E+03   -0.23636E-04   -0.17175E-04    74   0.740E-02    0.688E-03
RMM:   2    -0.103500757674E+03    0.25452E-06   -0.49793E-06    38   0.118E-02
  54 F= -.10369704E+03 E0= -.10369704E+03  d E =-.138180E-04
 BRION: g(F)=  0.166E-02 g(S)=  0.000E+00 retain N=  1 mean eig= 0.47
 eig:   0.468
 bond charge predicted
       N       E                     dE             d eps       ncg     rms          rms(c)
DAV:   1    -0.103500788961E+03   -0.31032E-04   -0.33265E-04    66   0.104E-01    0.454E-03
RMM:   2    -0.103500789504E+03   -0.54264E-06   -0.56412E-06    37   0.130E-02
  55 F= -.10369707E+03 E0= -.10369707E+03  d E =-.311489E-04
 BRION: g(F)=  0.153E-02 g(S)=  0.000E+00 retain N=  1 mean eig= 0.72
 eig:   0.725
 bond charge predicted
       N       E                     dE             d eps       ncg     rms          rms(c)
DAV:   1    -0.103500835023E+03   -0.46062E-04   -0.53395E-04    66   0.133E-01    0.599E-03
RMM:   2    -0.103500835544E+03   -0.52129E-06   -0.77806E-06    37   0.156E-02
  56 F= -.10369711E+03 E0= -.10369711E+03  d E =-.440630E-04
 BRION: g(F)=  0.150E-02 g(S)=  0.000E+00 retain N=  2 mean eig= 2.54
 eig:   1.691  3.392
 bond charge predicted
       N       E                     dE             d eps       ncg     rms          rms(c)
DAV:   1    -0.103501065785E+03   -0.23076E-03   -0.15918E-02    60   0.722E-01    0.285E-02
RMM:   2    -0.103501079056E+03   -0.13271E-04   -0.21563E-04    60   0.827E-02    0.176E-02
RMM:   3    -0.103501081956E+03   -0.28997E-05   -0.34946E-05    46   0.356E-02
  57 F= -.10369735E+03 E0= -.10369735E+03  d E =-.235348E-03
 BRION: g(F)=  0.139E-02 g(S)=  0.000E+00 retain N=  2 mean eig= 6.20
 eig:   6.200  6.200
 bond charge predicted
       N       E                     dE             d eps       ncg     rms          rms(c)
DAV:   1    -0.103501224181E+03   -0.14513E-03   -0.57113E-03    60   0.433E-01    0.171E-02
RMM:   2    -0.103501229852E+03   -0.56704E-05   -0.86482E-05    55   0.526E-02
  58 F= -.10369749E+03 E0= -.10369749E+03  d E =-.142588E-03
 BRION: g(F)=  0.135E-02 g(S)=  0.000E+00 retain N=  2 mean eig= 4.58
 eig:   5.751  3.409
 bond charge predicted
       N       E                     dE             d eps       ncg     rms          rms(c)
DAV:   1    -0.103501307246E+03   -0.83065E-04   -0.13396E-03    60   0.214E-01    0.112E-02
RMM:   2    -0.103501308064E+03   -0.81819E-06   -0.22296E-05    42   0.265E-02
  59 F= -.10369756E+03 E0= -.10369756E+03  d E =-.738715E-04
 BRION: g(F)=  0.132E-02 g(S)=  0.000E+00 retain N=  3 mean eig= 4.52
 eig:   6.200  6.200  1.169
 bond charge predicted
       N       E                     dE             d eps       ncg     rms          rms(c)
DAV:   1    -0.103501412304E+03   -0.10506E-03   -0.28045E-03    60   0.304E-01    0.128E-02
RMM:   2    -0.103501414787E+03   -0.24823E-05   -0.40819E-05    43   0.356E-02
  60 F= -.10369767E+03 E0= -.10369767E+03  d E =-.102814E-03
 BRION: g(F)=  0.127E-02 g(S)=  0.000E+00 retain N=  3 mean eig= 4.10
 eig:   5.568  5.568  1.173
 bond charge predicted
       N       E                     dE             d eps       ncg     rms          rms(c)
DAV:   1    -0.103501458257E+03   -0.45952E-04   -0.31419E-04    60   0.105E-01    0.598E-03
RMM:   2    -0.103501458541E+03   -0.28479E-06   -0.52768E-06    34   0.129E-02
  61 F= -.10369771E+03 E0= -.10369771E+03  d E =-.423211E-04
 BRION: g(F)=  0.125E-02 g(S)=  0.000E+00 retain N=  3 mean eig= 3.53
 eig:   1.604  4.493  4.493
 bond charge predicted
       N       E                     dE             d eps       ncg     rms          rms(c)
DAV:   1    -0.103501644227E+03   -0.18597E-03   -0.74080E-03    60   0.492E-01    0.192E-02
RMM:   2    -0.103501650803E+03   -0.65758E-05   -0.10225E-04    58   0.568E-02    0.118E-02
RMM:   3    -0.103501652362E+03   -0.15594E-05   -0.16844E-05    41   0.245E-02
  62 F= -.10369790E+03 E0= -.10369790E+03  d E =-.187862E-03
 BRION: g(F)=  0.122E-02 g(S)=  0.000E+00 retain N=  2 mean eig= 5.90
 eig:   5.902  5.902
 bond charge predicted
       N       E                     dE             d eps       ncg     rms          rms(c)
DAV:   1    -0.103501848615E+03   -0.19781E-03   -0.81572E-03    60   0.517E-01    0.202E-02
RMM:   2    -0.103501856108E+03   -0.74934E-05   -0.11684E-04    59   0.612E-02    0.126E-02
RMM:   3    -0.103501857860E+03   -0.17524E-05   -0.19749E-05    42   0.266E-02
  63 F= -.10369810E+03 E0= -.10369810E+03  d E =-.199091E-03
 BRION: g(F)=  0.119E-02 g(S)=  0.000E+00 retain N=  2 mean eig= 4.91
 eig:   4.906  4.906
 bond charge predicted
       N       E                     dE             d eps       ncg     rms          rms(c)
DAV:   1    -0.103501855886E+03    0.22210E-06   -0.20025E-05    66   0.258E-02    0.224E-03
RMM:   2    -0.103501856055E+03   -0.16921E-06   -0.81513E-07    30   0.575E-03
  64 F= -.10369809E+03 E0= -.10369809E+03  d E =0.197178E-05
 BRION: g(F)=  0.120E-02 g(S)=  0.000E+00 retain N=  3 mean eig= 3.60
 eig:   4.877  4.877  1.060
 bond charge predicted
       N       E                     dE             d eps       ncg     rms          rms(c)
DAV:   1    -0.103501848694E+03    0.71920E-05   -0.10923E-05    50   0.195E-02    0.897E-04
RMM:   2    -0.103501848866E+03   -0.17195E-06   -0.29863E-07    24   0.407E-03
  65 F= -.10369809E+03 E0= -.10369809E+03  d E =0.703234E-05
 BRION: g(F)=  0.121E-02 g(S)=  0.000E+00 retain N=  4 mean eig= 3.37
 eig:   5.465  5.465  1.269  1.269
 bond charge predicted
       N       E                     dE             d eps       ncg     rms          rms(c)
DAV:   1    -0.103501915222E+03   -0.66528E-04   -0.65996E-04    66   0.146E-01    0.547E-03
RMM:   2    -0.103501915880E+03   -0.65876E-06   -0.89561E-06    37   0.167E-02
  66 F= -.10369815E+03 E0= -.10369815E+03  d E =-.650330E-04
 BRION: g(F)=  0.123E-02 g(S)=  0.000E+00 retain N=  5 mean eig= 3.27
 eig:   7.497  3.710  0.454  2.356  2.356
 bond charge predicted
       N       E                     dE             d eps       ncg     rms          rms(c)
DAV:   1    -0.103502025887E+03   -0.11067E-03   -0.16086E-03    60   0.230E-01    0.102E-02
RMM:   2    -0.103502026820E+03   -0.93243E-06   -0.22584E-05    42   0.266E-02
  67 F= -.10369826E+03 E0= -.10369826E+03  d E =-.105949E-03
 BRION: g(F)=  0.122E-02 g(S)=  0.000E+00 retain N=  2 mean eig= 1.39
 eig:   1.393  1.393
 bond charge predicted
       N       E                     dE             d eps       ncg     rms          rms(c)
DAV:   1    -0.103501977254E+03    0.48633E-04   -0.67676E-04    60   0.145E-01    0.792E-03
RMM:   2    -0.103501977886E+03   -0.63203E-06   -0.14721E-05    38   0.204E-02
  68 F= -.10369821E+03 E0= -.10369821E+03  d E =0.440423E-04
 BRION: g(F)=  0.122E-02 g(S)=  0.000E+00 retain N=  3 mean eig= 1.68
 eig:   3.422  0.811  0.811
 bond charge predicted
       N       E                     dE             d eps       ncg     rms          rms(c)
DAV:   1    -0.103502321719E+03   -0.34446E-03   -0.18043E-02    60   0.764E-01    0.289E-02
RMM:   2    -0.103502337069E+03   -0.15351E-04   -0.24005E-04    60   0.871E-02    0.177E-02
RMM:   3    -0.103502339966E+03   -0.28969E-05   -0.37319E-05    47   0.368E-02
  69 F= -.10369856E+03 E0= -.10369856E+03  d E =-.350130E-03
 BRION: g(F)=  0.969E-03 g(S)=  0.000E+00 retain N=  1 mean eig= 5.72
 eig:   5.723
 bond charge predicted
       N       E                     dE             d eps       ncg     rms          rms(c)
DAV:   1    -0.103502612349E+03   -0.27528E-03   -0.12325E-02    60   0.634E-01    0.249E-02
RMM:   2    -0.103502623617E+03   -0.11268E-04   -0.18007E-04    60   0.756E-02    0.156E-02
RMM:   3    -0.103502626090E+03   -0.24731E-05   -0.30261E-05    45   0.327E-02
  70 F= -.10369884E+03 E0= -.10369884E+03  d E =-.280527E-03
 BRION: g(F)=  0.947E-03 g(S)=  0.000E+00 retain N=  2 mean eig= 4.60
 eig:   4.598  4.598
 bond charge predicted
       N       E                     dE             d eps       ncg     rms          rms(c)
DAV:   1    -0.103503014961E+03   -0.39134E-03   -0.24245E-02    60   0.889E-01    0.348E-02
RMM:   2    -0.103503035834E+03   -0.20873E-04   -0.33940E-04    60   0.104E-01    0.216E-02
RMM:   3    -0.103503040167E+03   -0.43330E-05   -0.55684E-05    51   0.449E-02
  71 F= -.10369925E+03 E0= -.10369925E+03  d E =-.401023E-03
 BRION: g(F)=  0.844E-03 g(S)=  0.000E+00 retain N=  2 mean eig= 4.29
 eig:   4.285  4.285
 bond charge predicted
       N       E                     dE             d eps       ncg     rms          rms(c)
DAV:   1    -0.103503169146E+03   -0.13331E-03   -0.26788E-03    66   0.298E-01    0.120E-02
RMM:   2    -0.103503172276E+03   -0.31298E-05   -0.44379E-05    45   0.376E-02
  72 F= -.10369938E+03 E0= -.10369938E+03  d E =-.129182E-03
 BRION: g(F)=  0.829E-03 g(S)=  0.000E+00 retain N=  3 mean eig= 3.69
 eig:   4.921  4.921  1.221
 bond charge predicted
       N       E                     dE             d eps       ncg     rms          rms(c)
DAV:   1    -0.103503240184E+03   -0.71039E-04   -0.69041E-04    66   0.153E-01    0.777E-03
RMM:   2    -0.103503240885E+03   -0.70043E-06   -0.11836E-05    40   0.190E-02
  73 F= -.10369944E+03 E0= -.10369944E+03  d E =-.675162E-04
 BRION: g(F)=  0.807E-03 g(S)=  0.000E+00 retain N=  3 mean eig= 3.59
 eig:   4.682  4.682  1.400
 bond charge predicted
       N       E                     dE             d eps       ncg     rms          rms(c)
DAV:   1    -0.103503417550E+03   -0.17737E-03   -0.52848E-03    60   0.418E-01    0.168E-02
RMM:   2    -0.103503422241E+03   -0.46911E-05   -0.74084E-05    54   0.485E-02
  74 F= -.10369962E+03 E0= -.10369962E+03  d E =-.177367E-03
 BRION: g(F)=  0.792E-03 g(S)=  0.000E+00 retain N=  3 mean eig= 5.44
 eig:   7.446  7.446  1.415
 bond charge predicted
       N       E                     dE             d eps       ncg     rms          rms(c)
DAV:   1    -0.103503552601E+03   -0.13505E-03   -0.27682E-03    60   0.306E-01    0.142E-02
RMM:   2    -0.103503554878E+03   -0.22766E-05   -0.42887E-05    44   0.365E-02
  75 F= -.10369975E+03 E0= -.10369975E+03  d E =-.130611E-03
 BRION: g(F)=  0.784E-03 g(S)=  0.000E+00 retain N=  3 mean eig= 4.46
 eig:   1.092  6.138  6.138
 bond charge predicted
       N       E                     dE             d eps       ncg     rms          rms(c)
DAV:   1    -0.103503649394E+03   -0.96793E-04   -0.14082E-03    60   0.219E-01    0.996E-03
RMM:   2    -0.103503650658E+03   -0.12641E-05   -0.21508E-05    41   0.260E-02
  76 F= -.10369984E+03 E0= -.10369984E+03  d E =-.935839E-04
 BRION: g(F)=  0.769E-03 g(S)=  0.000E+00 retain N=  2 mean eig= 5.86
 eig:   5.857  5.857
 bond charge predicted
       N       E                     dE             d eps       ncg     rms          rms(c)
DAV:   1    -0.103503885945E+03   -0.23655E-03   -0.98831E-03    60   0.573E-01    0.231E-02
RMM:   2    -0.103503894510E+03   -0.85654E-05   -0.13855E-04    60   0.664E-02    0.143E-02
RMM:   3    -0.103503896656E+03   -0.21455E-05   -0.23069E-05    43   0.288E-02
  77 F= -.10370009E+03 E0= -.10370009E+03  d E =-.242055E-03
 BRION: g(F)=  0.755E-03 g(S)=  0.000E+00
 BRIONS problems: POTIM should be increased
 retain N=  1 mean eig=11.03
 eig:  11.035
 bond charge predicted
       N       E                     dE             d eps       ncg     rms          rms(c)
DAV:   1    -0.103503965275E+03   -0.70765E-04   -0.73794E-04    60   0.157E-01    0.681E-03
RMM:   2    -0.103503966137E+03   -0.86258E-06   -0.12784E-05    39   0.203E-02
  78 F= -.10370015E+03 E0= -.10370015E+03  d E =-.678022E-04
 BRION: g(F)=  0.757E-03 g(S)=  0.000E+00 retain N=  1 mean eig= 0.65
 eig:   0.655
 bond charge predicted
       N       E                     dE             d eps       ncg     rms          rms(c)
DAV:   1    -0.103503967375E+03   -0.20999E-05   -0.80799E-06    66   0.163E-02    0.185E-03
RMM:   2    -0.103503967558E+03   -0.18295E-06   -0.47559E-07    19   0.456E-03
  79 F= -.10370016E+03 E0= -.10370016E+03  d E =-.189162E-05
 BRION: g(F)=  0.763E-03 g(S)=  0.000E+00 retain N=  2 mean eig= 1.94
 eig:   3.006  0.884
 bond charge predicted
       N       E                     dE             d eps       ncg     rms          rms(c)
DAV:   1    -0.103503861021E+03    0.10635E-03   -0.18316E-03    60   0.245E-01    0.962E-03
RMM:   2    -0.103503862879E+03   -0.18585E-05   -0.25515E-05    42   0.283E-02
  80 F= -.10370005E+03 E0= -.10370005E+03  d E =0.103029E-03
 BRION: g(F)=  0.816E-03 g(S)=  0.000E+00 retain N=  1 mean eig= 7.56
 eig:   7.561
 bond charge predicted
       N       E                     dE             d eps       ncg     rms          rms(c)
DAV:   1    -0.103504299373E+03   -0.43835E-03   -0.39555E-02    60   0.114E+00    0.430E-02
RMM:   2    -0.103504335376E+03   -0.36003E-04   -0.53886E-04    60   0.131E-01    0.255E-02
RMM:   3    -0.103504342072E+03   -0.66961E-05   -0.84386E-05    55   0.555E-02
  81 F= -.10370053E+03 E0= -.10370053E+03  d E =-.475429E-03
 BRION: g(F)=  0.728E-03 g(S)=  0.000E+00
 BRIONS problems: POTIM should be increased
 retain N=  1 mean eig=11.47
 eig:  11.466
 bond charge predicted
       N       E                     dE             d eps       ncg     rms          rms(c)
DAV:   1    -0.103504442077E+03   -0.10670E-03   -0.23376E-03    60   0.280E-01    0.172E-02
RMM:   2    -0.103504441697E+03    0.38048E-06   -0.52003E-05    47   0.399E-02
  82 F= -.10370062E+03 E0= -.10370062E+03  d E =-.926746E-04
 BRION: g(F)=  0.767E-03 g(S)=  0.000E+00 retain N=  1 mean eig= 0.48
 eig:   0.483
 bond charge predicted
       N       E                     dE             d eps       ncg     rms          rms(c)
DAV:   1    -0.103504439324E+03    0.27529E-05   -0.37422E-04    60   0.105E-01    0.741E-03
RMM:   2    -0.103504439891E+03   -0.56607E-06   -0.11032E-05    38   0.165E-02
  83 F= -.10370062E+03 E0= -.10370062E+03  d E =-.144045E-05
 BRION: g(F)=  0.677E-03 g(S)=  0.000E+00 retain N=  1 mean eig= 0.49
 eig:   0.492
 bond charge predicted
       N       E                     dE             d eps       ncg     rms          rms(c)
DAV:   1    -0.103504485734E+03   -0.46409E-04   -0.31572E-04    66   0.103E-01    0.513E-03
RMM:   2    -0.103504485971E+03   -0.23780E-06   -0.49941E-06    33   0.125E-02
  84 F= -.10370067E+03 E0= -.10370067E+03  d E =-.461098E-04
 BRION: g(F)=  0.655E-03 g(S)=  0.000E+00 retain N=  2 mean eig= 3.24
 eig:   0.582  5.898
 bond charge predicted
       N       E                     dE             d eps       ncg     rms          rms(c)
DAV:   1    -0.103504841151E+03   -0.35542E-03   -0.19372E-02    60   0.803E-01    0.321E-02
RMM:   2    -0.103504856748E+03   -0.15597E-04   -0.26060E-04    60   0.919E-02    0.196E-02
RMM:   3    -0.103504859999E+03   -0.32514E-05   -0.42600E-05    48   0.395E-02
  85 F= -.10370104E+03 E0= -.10370104E+03  d E =-.368424E-03
 BRION: g(F)=  0.639E-03 g(S)=  0.000E+00 retain N=  2 mean eig= 6.36
 eig:   6.359  6.359
 bond charge predicted
       N       E                     dE             d eps       ncg     rms          rms(c)
DAV:   1    -0.103505005382E+03   -0.14863E-03   -0.29752E-03    60   0.315E-01    0.127E-02
RMM:   2    -0.103505008482E+03   -0.31005E-05   -0.46614E-05    46   0.390E-02
  86 F= -.10370118E+03 E0= -.10370118E+03  d E =-.146841E-03
 BRION: g(F)=  0.645E-03 g(S)=  0.000E+00 retain N=  3 mean eig= 5.61
 eig:   7.962  7.962  0.910
 bond charge predicted
       N       E                     dE             d eps       ncg     rms          rms(c)
DAV:   1    -0.103505356304E+03   -0.35092E-03   -0.18332E-02    60   0.783E-01    0.321E-02
RMM:   2    -0.103505371218E+03   -0.14914E-04   -0.25427E-04    60   0.905E-02    0.199E-02
RMM:   3    -0.103505374665E+03   -0.34467E-05   -0.42605E-05    48   0.392E-02
  87 F= -.10370155E+03 E0= -.10370155E+03  d E =-.362686E-03
 BRION: g(F)=  0.589E-03 g(S)=  0.000E+00 retain N=  1 mean eig= 5.22
 eig:   5.223
 bond charge predicted
       N       E                     dE             d eps       ncg     rms          rms(c)
DAV:   1    -0.103505409580E+03   -0.38362E-04   -0.25579E-04    66   0.938E-02    0.594E-03
RMM:   2    -0.103505410128E+03   -0.54787E-06   -0.71857E-06    39   0.148E-02
  88 F= -.10370158E+03 E0= -.10370158E+03  d E =-.366931E-04
 BRION: g(F)=  0.608E-03 g(S)=  0.000E+00 retain N=  2 mean eig= 3.03
 eig:   5.650  0.411
 bond charge predicted
       N       E                     dE             d eps       ncg     rms          rms(c)
DAV:   1    -0.103505404677E+03    0.49032E-05   -0.14187E-05    66   0.217E-02    0.179E-03
RMM:   2    -0.103505404902E+03   -0.22563E-06   -0.55376E-07    28   0.493E-03
  89 F= -.10370158E+03 E0= -.10370158E+03  d E =0.548866E-05
 BRION: g(F)=  0.605E-03 g(S)=  0.000E+00 retain N=  3 mean eig= 2.28
 eig:   3.117  3.117  0.608
 bond charge predicted
       N       E                     dE             d eps       ncg     rms          rms(c)
DAV:   1    -0.103505470587E+03   -0.65910E-04   -0.58221E-04    66   0.140E-01    0.578E-03
RMM:   2    -0.103505471141E+03   -0.55423E-06   -0.78412E-06    37   0.159E-02
  90 F= -.10370164E+03 E0= -.10370164E+03  d E =-.648150E-04
 BRION: g(F)=  0.619E-03 g(S)=  0.000E+00 retain N=  3 mean eig= 1.30
 eig:   0.893  1.105  1.892
 bond charge predicted
       N       E                     dE             d eps       ncg     rms          rms(c)
DAV:   1    -0.103505462564E+03    0.80228E-05   -0.20046E-05    58   0.255E-02    0.117E-03
RMM:   2    -0.103505462768E+03   -0.20361E-06   -0.65304E-07    28   0.538E-03
  91 F= -.10370163E+03 E0= -.10370163E+03  d E =0.813065E-05
 BRION: g(F)=  0.639E-03 g(S)=  0.000E+00 retain N=  4 mean eig= 2.32
 eig:   2.582  2.582  1.102  3.013
 bond charge predicted
       N       E                     dE             d eps       ncg     rms          rms(c)
DAV:   1    -0.103505407031E+03    0.55533E-04   -0.59167E-04    66   0.144E-01    0.655E-03
RMM:   2    -0.103505407511E+03   -0.47975E-06   -0.72902E-06    37   0.161E-02
  92 F= -.10370158E+03 E0= -.10370158E+03  d E =0.538105E-04
 BRION: g(F)=  0.634E-03 g(S)=  0.000E+00 retain N=  2 mean eig= 3.34
 eig:   0.594  6.079
 bond charge predicted
       N       E                     dE             d eps       ncg     rms          rms(c)
DAV:   1    -0.103505487186E+03   -0.80156E-04   -0.86728E-04    60   0.165E-01    0.586E-03
RMM:   2    -0.103505488023E+03   -0.83651E-06   -0.12106E-05    38   0.188E-02
  93 F= -.10370166E+03 E0= -.10370166E+03  d E =-.794300E-04
 BRION: g(F)=  0.578E-03 g(S)=  0.000E+00 retain N=  3 mean eig= 2.40
 eig:   5.600  0.349  1.242
 bond charge predicted
       N       E                     dE             d eps       ncg     rms          rms(c)
DAV:   1    -0.103505517165E+03   -0.29979E-04   -0.15198E-04    74   0.709E-02    0.419E-03
RMM:   2    -0.103505517155E+03    0.10477E-07   -0.20361E-06    32   0.808E-03
  94 F= -.10370169E+03 E0= -.10370169E+03  d E =-.290645E-04
 BRION: g(F)=  0.501E-03 g(S)=  0.000E+00 retain N=  3 mean eig= 2.76
 eig:   1.893  3.197  3.197
 bond charge predicted
       N       E                     dE             d eps       ncg     rms          rms(c)
DAV:   1    -0.103505646951E+03   -0.12979E-03   -0.20855E-03    60   0.259E-01    0.996E-03
RMM:   2    -0.103505648748E+03   -0.17964E-05   -0.29649E-05    42   0.301E-02
  95 F= -.10370182E+03 E0= -.10370182E+03  d E =-.130257E-03
 BRION: g(F)=  0.468E-03 g(S)=  0.000E+00 retain N=  3 mean eig= 5.10
 eig:   1.545  6.884  6.884
 bond charge predicted
       N       E                     dE             d eps       ncg     rms          rms(c)
DAV:   1    -0.103505735971E+03   -0.89020E-04   -0.85094E-04    60   0.169E-01    0.816E-03
RMM:   2    -0.103505736579E+03   -0.60849E-06   -0.13671E-05    39   0.204E-02
  96 F= -.10370191E+03 E0= -.10370191E+03  d E =-.881811E-04
 BRION: g(F)=  0.461E-03 g(S)=  0.000E+00 retain N=  3 mean eig= 3.16
 eig:   1.416  4.028  4.028
 bond charge predicted
       N       E                     dE             d eps       ncg     rms          rms(c)
DAV:   1    -0.103505810488E+03   -0.74517E-04   -0.60415E-04    60   0.143E-01    0.649E-03
RMM:   2    -0.103505810961E+03   -0.47299E-06   -0.91630E-06    36   0.170E-02
  97 F= -.10370198E+03 E0= -.10370198E+03  d E =-.736394E-04
 BRION: g(F)=  0.447E-03 g(S)=  0.000E+00 retain N=  3 mean eig= 4.83
 eig:   6.977  6.977  0.537
 bond charge predicted
       N       E                     dE             d eps       ncg     rms          rms(c)
DAV:   1    -0.103505961346E+03   -0.15086E-03   -0.26956E-03    60   0.300E-01    0.125E-02
RMM:   2    -0.103505963553E+03   -0.22062E-05   -0.37957E-05    43   0.347E-02
  98 F= -.10370213E+03 E0= -.10370213E+03  d E =-.151829E-03
 BRION: g(F)=  0.443E-03 g(S)=  0.000E+00 retain N=  3 mean eig= 3.23
 eig:   4.201  4.201  1.281
 bond charge predicted
       N       E                     dE             d eps       ncg     rms          rms(c)
DAV:   1    -0.103506052080E+03   -0.90734E-04   -0.88096E-04    66   0.174E-01    0.853E-03
RMM:   2    -0.103506052720E+03   -0.64011E-06   -0.13879E-05    38   0.208E-02
  99 F= -.10370222E+03 E0= -.10370222E+03  d E =-.891381E-04
 BRION: g(F)=  0.442E-03 g(S)=  0.000E+00 retain N=  3 mean eig= 2.13
 eig:   2.806  2.806  0.778
 bond charge predicted
       N       E                     dE             d eps       ncg     rms          rms(c)
DAV:   1    -0.103506183807E+03   -0.13173E-03   -0.20123E-03    60   0.260E-01    0.110E-02
RMM:   2    -0.103506185486E+03   -0.16787E-05   -0.28713E-05    42   0.302E-02
 100 F= -.10370235E+03 E0= -.10370235E+03  d E =-.132005E-03
 BRION: g(F)=  0.433E-03 g(S)=  0.000E+00
 BRIONS problems: POTIM should be increased
 retain N=  1 mean eig=10.85
 eig:  10.847
 bond charge predicted
       N       E                     dE             d eps       ncg     rms          rms(c)
DAV:   1    -0.103506426398E+03   -0.24259E-03   -0.69958E-03    60   0.485E-01    0.204E-02
RMM:   2    -0.103506431933E+03   -0.55352E-05   -0.97059E-05    58   0.560E-02
 101 F= -.10370260E+03 E0= -.10370260E+03  d E =-.245300E-03
 BRION: g(F)=  0.427E-03 g(S)=  0.000E+00
 BRIONS problems: POTIM should be increased
 retain N=  1 mean eig= 9.70
 eig:   9.698
 bond charge predicted
       N       E                     dE             d eps       ncg     rms          rms(c)
DAV:   1    -0.103506480175E+03   -0.53777E-04   -0.23897E-04    66   0.942E-02    0.699E-03
RMM:   2    -0.103506480212E+03   -0.37418E-07   -0.45821E-06    36   0.123E-02
 102 F= -.10370265E+03 E0= -.10370265E+03  d E =-.474606E-04
 BRION: g(F)=  0.431E-03 g(S)=  0.000E+00 retain N=  1 mean eig= 0.33
 eig:   0.331
 bond charge predicted
       N       E                     dE             d eps       ncg     rms          rms(c)
DAV:   1    -0.103506496345E+03   -0.16171E-04   -0.31093E-05    74   0.332E-02    0.166E-03
RMM:   2    -0.103506496484E+03   -0.13878E-06   -0.68873E-07    21   0.521E-03
 103 F= -.10370266E+03 E0= -.10370266E+03  d E =-.163985E-04
 BRION: g(F)=  0.434E-03 g(S)=  0.000E+00 retain N=  2 mean eig= 4.16
 eig:   0.657  7.656
 bond charge predicted
       N       E                     dE             d eps       ncg     rms          rms(c)
DAV:   1    -0.103506247368E+03    0.24898E-03   -0.72508E-03    60   0.491E-01    0.196E-02
RMM:   2    -0.103506253629E+03   -0.62606E-05   -0.96973E-05    58   0.558E-02
 104 F= -.10370242E+03 E0= -.10370242E+03  d E =0.242893E-03
 BRION: g(F)=  0.482E-03 g(S)=  0.000E+00 retain N=  1 mean eig= 7.81
 eig:   7.805
 bond charge predicted
       N       E                     dE             d eps       ncg     rms          rms(c)
DAV:   1    -0.103506841856E+03   -0.59449E-03   -0.50621E-02    60   0.130E+00    0.495E-02
RMM:   2    -0.103506885194E+03   -0.43338E-04   -0.64936E-04    60   0.146E-01    0.289E-02
RMM:   3    -0.103506893195E+03   -0.80013E-05   -0.10307E-04    60   0.617E-02    0.979E-03
RMM:   4    -0.103506895865E+03   -0.26705E-05   -0.25242E-05    44   0.288E-02
 105 F= -.10370306E+03 E0= -.10370306E+03  d E =-.639548E-03
 BRION: g(F)=  0.413E-03 g(S)=  0.000E+00
 BRIONS problems: POTIM should be increased
 retain N=  1 mean eig=20.53
 eig:  20.527
 bond charge predicted
       N       E                     dE             d eps       ncg     rms          rms(c)
DAV:   1    -0.103507337740E+03   -0.44455E-03   -0.27967E-02    60   0.967E-01    0.385E-02
RMM:   2    -0.103507361525E+03   -0.23784E-04   -0.39053E-04    60   0.112E-01    0.236E-02
RMM:   3    -0.103507366113E+03   -0.45882E-05   -0.65043E-05    53   0.483E-02
 106 F= -.10370353E+03 E0= -.10370353E+03  d E =-.471035E-03
 BRION: g(F)=  0.458E-03 g(S)=  0.000E+00 retain N=  1 mean eig= 1.00
 eig:   1.001
 bond charge predicted
       N       E                     dE             d eps       ncg     rms          rms(c)
DAV:   1    -0.103507125304E+03    0.23622E-03   -0.73358E-03    60   0.494E-01    0.203E-02
RMM:   2    -0.103507130459E+03   -0.51546E-05   -0.90076E-05    58   0.536E-02
 107 F= -.10370329E+03 E0= -.10370329E+03  d E =0.236424E-03
 BRION: g(F)=  0.418E-03 g(S)=  0.000E+00 retain N=  1 mean eig= 1.67
 eig:   1.667
 bond charge predicted
       N       E                     dE             d eps       ncg     rms          rms(c)
DAV:   1    -0.103507255646E+03   -0.13034E-03   -0.20853E-03    66   0.260E-01    0.827E-03
RMM:   2    -0.103507257811E+03   -0.21657E-05   -0.24605E-05    41   0.286E-02
 108 F= -.10370342E+03 E0= -.10370342E+03  d E =-.126155E-03
 BRION: g(F)=  0.386E-03 g(S)=  0.000E+00 retain N=  2 mean eig= 4.35
 eig:   4.353  4.353
 reached required accuracy - stopping structural energy minimisation
