<?xml version="1.0" encoding="ISO-8859-1"?>
<modeling>
 <generator>
  <i name="program" type="string">vasp </i>
  <i name="version" type="string">6.3.2  </i>
  <i name="subversion" type="string">27Jun22 (build Oct 05 2023 17:59:42) gamma-only                       parallel </i>
  <i name="platform" type="string">LinuxIFC </i>
  <i name="date" type="string">2024 04 05 </i>
  <i name="time" type="string">18:28:44 </i>
 </generator>
 <incar>
  <i type="string" name="PREC">NORMAL</i>
  <i type="string" name="ALGO">Fast</i>
  <i type="int" name="ISPIN">     1</i>
  <i type="int" name="IBRION">     1</i>
  <i name="EDIFF">      0.00001000</i>
  <i name="EDIFFG">     -0.05000000</i>
  <i type="int" name="NSW">  5000</i>
  <i name="ENCUT">    400.00000000</i>
  <i name="POTIM">      0.10000000</i>
  <i type="int" name="ISMEAR">     0</i>
  <i name="SIGMA">      0.05000000</i>
  <i type="logical" name="LWAVE"> F  </i>
  <i type="logical" name="LCHARG"> F  </i>
  <i type="string" name="GGA">PE</i>
  <i type="int" name="IVDW">    11</i>
  <i name="SPRING">     -5.00000000</i>
 </incar>
 <primitive_cell>
  <structure name="primitive_cell" >
   <crystal>
    <varray name="basis" >
     <v>      15.40225029       0.00000000       0.00000000 </v>
     <v>       0.00000000      15.40225029       0.00000000 </v>
     <v>       0.00000000       0.00000000      15.40225029 </v>
    </varray>
    <i name="volume">   3653.86527022 </i>
    <varray name="rec_basis" >
     <v>       0.06492558       0.00000000       0.00000000 </v>
     <v>       0.00000000       0.06492558       0.00000000 </v>
     <v>       0.00000000       0.00000000       0.06492558 </v>
    </varray>
   </crystal>
   <varray name="positions" >
    <v>       0.33640521       0.44163629       0.56655582 </v>
    <v>       0.33591225       0.52832280       0.57298262 </v>
    <v>       0.41557417       0.58038650       0.55598477 </v>
    <v>       0.41415094       0.39054052       0.54009358 </v>
    <v>       0.49332274       0.44461995       0.51169190 </v>
    <v>       0.46950244       0.53664089       0.48406204 </v>
    <v>       0.54697402       0.58661610       0.46440071 </v>
    <v>       0.27823398       0.40395809       0.58050452 </v>
    <v>       0.43526410       0.34786099       0.59319258 </v>
    <v>       0.39580418       0.34574433       0.48803630 </v>
    <v>       0.27646088       0.56200073       0.59097183 </v>
    <v>       0.45815348       0.58419860       0.61286603 </v>
    <v>       0.39950913       0.64748114       0.53894403 </v>
    <v>       0.52838358       0.41156414       0.45936295 </v>
    <v>       0.53883474       0.45010100       0.56566184 </v>
    <v>       0.42970946       0.53360375       0.42523749 </v>
    <v>       0.61036748       0.62583218       0.45115279 </v>
   </varray>
  </structure>
  <varray name="primitive_index" >
   <v type="int" >        1 </v>
   <v type="int" >        2 </v>
   <v type="int" >        3 </v>
   <v type="int" >        4 </v>
   <v type="int" >        5 </v>
   <v type="int" >        6 </v>
   <v type="int" >        7 </v>
   <v type="int" >        8 </v>
   <v type="int" >        9 </v>
   <v type="int" >       10 </v>
   <v type="int" >       11 </v>
   <v type="int" >       12 </v>
   <v type="int" >       13 </v>
   <v type="int" >       14 </v>
   <v type="int" >       15 </v>
   <v type="int" >       16 </v>
   <v type="int" >       17 </v>
  </varray>
 </primitive_cell>
 <kpoints>
  <generation param="Monkhorst-Pack">
   <v type="int" name="divisions">       1        1        1 </v>
   <v name="usershift">      0.00000000       0.00000000       0.00000000 </v>
   <v name="genvec1">      1.00000000       0.00000000       0.00000000 </v>
   <v name="genvec2">      0.00000000       1.00000000       0.00000000 </v>
   <v name="genvec3">      0.00000000       0.00000000       1.00000000 </v>
   <v name="shift">      0.00000000       0.00000000       0.00000000 </v>
  </generation>
  <varray name="kpointlist" >
   <v>       0.00000000       0.00000000       0.00000000 </v>
  </varray>
  <varray name="weights" >
   <v>       1.00000000 </v>
  </varray>
 </kpoints>
 <parameters>
  <separator name="general" >
   <i type="string" name="SYSTEM">unknown system</i>
   <i type="logical" name="LCOMPAT"> F  </i>
  </separator>
  <separator name="electronic" >
   <i type="string" name="PREC">normal</i>
   <i name="ENMAX">    400.00000000</i>
   <i name="ENAUG">    644.87300000</i>
   <i name="EDIFF">      0.00001000</i>
   <i type="int" name="IALGO">    68</i>
   <i type="int" name="IWAVPR">    11</i>
   <i type="int" name="NBANDS">    30</i>
   <i type="int" name="NBANDSLOW">    -1</i>
   <i type="int" name="NBANDSHIGH">    -1</i>
   <i name="NELECT">     42.00000000</i>
   <i type="int" name="TURBO">     0</i>
   <i type="int" name="IRESTART">     0</i>
   <i type="int" name="NREBOOT">     0</i>
   <i type="int" name="NMIN">     0</i>
   <i name="EREF">      0.00000000</i>
   <separator name="electronic smearing" >
    <i type="int" name="ISMEAR">     0</i>
    <i name="SIGMA">      0.05000000</i>
    <i name="KSPACING">      0.50000000</i>
    <i type="logical" name="KGAMMA"> T  </i>
    <i type="logical" name="KBLOWUP"> T  </i>
   </separator>
   <separator name="electronic projectors" >
    <i type="logical" name="LREAL"> F  </i>
    <v name="ROPT">      0.00000000      0.00000000      0.00000000</v>
    <i type="int" name="LMAXPAW">  -100</i>
    <i type="int" name="LMAXMIX">     2</i>
    <i type="logical" name="NLSPLINE"> F  </i>
   </separator>
   <separator name="electronic startup" >
    <i type="int" name="ISTART">     0</i>
    <i type="int" name="ICHARG">     2</i>
    <i type="int" name="INIWAV">     1</i>
   </separator>
   <separator name="electronic spin" >
    <i type="int" name="ISPIN">     1</i>
    <i type="logical" name="LNONCOLLINEAR"> F  </i>
    <v name="MAGMOM">      1.00000000      1.00000000      1.00000000      1.00000000      1.00000000      1.00000000      1.00000000      1.00000000      1.00000000      1.00000000      1.00000000      1.00000000      1.00000000      1.00000000      1.00000000      1.00000000      1.00000000</v>
    <i name="NUPDOWN">     -1.00000000</i>
    <i type="logical" name="LSORBIT"> F  </i>
    <v name="SAXIS">      0.00000000      0.00000000      1.00000000</v>
    <i type="logical" name="LSPIRAL"> F  </i>
    <v name="QSPIRAL">      0.00000000      0.00000000      0.00000000</v>
    <i type="logical" name="LZEROZ"> F  </i>
   </separator>
   <separator name="electronic exchange-correlation" >
    <i type="logical" name="LASPH"> F  </i>
    <i type="logical" name="LMETAGGA"> F  </i>
   </separator>
   <separator name="electronic convergence" >
    <i type="int" name="NELM">    60</i>
    <i type="int" name="NELMDL">    -5</i>
    <i type="int" name="NELMIN">     2</i>
    <i name="ENINI">    400.00000000</i>
    <separator name="electronic convergence detail" >
     <i type="logical" name="LDIAG"> T  </i>
     <i type="logical" name="LSUBROT"> F  </i>
     <i name="WEIMIN">      0.00100000</i>
     <i name="EBREAK">      0.00000008</i>
     <i name="DEPER">      0.30000000</i>
     <i type="int" name="NRMM">     4</i>
     <i name="TIME">      0.40000000</i>
    </separator>
   </separator>
   <separator name="electronic mixer" >
    <i name="AMIX">      0.40000000</i>
    <i name="BMIX">      1.00000000</i>
    <i name="AMIN">      0.10000000</i>
    <i name="AMIX_MAG">      1.60000000</i>
    <i name="BMIX_MAG">      1.00000000</i>
    <separator name="electronic mixer details" >
     <i type="int" name="IMIX">     4</i>
     <i type="logical" name="MIXFIRST"> F  </i>
     <i type="int" name="MAXMIX">   -45</i>
     <i name="WC">    100.00000000</i>
     <i type="int" name="INIMIX">     1</i>
     <i type="int" name="MIXPRE">     1</i>
     <i type="int" name="MREMOVE">     5</i>
    </separator>
   </separator>
   <separator name="electronic dipolcorrection" >
    <i type="logical" name="LDIPOL"> F  </i>
    <i type="logical" name="LMONO"> F  </i>
    <i type="int" name="IDIPOL">     0</i>
    <i name="EPSILON">      1.00000000</i>
    <v name="DIPOL">   -100.00000000   -100.00000000   -100.00000000</v>
    <i name="EFIELD">      0.00000000</i>
   </separator>
  </separator>
  <separator name="grids" >
   <i type="int" name="NGX">    80</i>
   <i type="int" name="NGY">    80</i>
   <i type="int" name="NGZ">    80</i>
   <i type="int" name="NGXF">   160</i>
   <i type="int" name="NGYF">   160</i>
   <i type="int" name="NGZF">   160</i>
   <i type="logical" name="ADDGRID"> F  </i>
  </separator>
  <separator name="ionic" >
   <i type="int" name="NSW">  5000</i>
   <i type="int" name="IBRION">     1</i>
   <i type="int" name="MDALGO">     0</i>
   <i type="int" name="ISIF">     2</i>
   <i name="PSTRESS">      0.00000000</i>
   <i name="EDIFFG">     -0.05000000</i>
   <i type="int" name="NFREE">     0</i>
   <i name="POTIM">      0.10000000</i>
   <i name="SMASS">     -3.00000000</i>
   <i name="SCALEE">      1.00000000</i>
  </separator>
  <separator name="ionic md" >
   <i name="TEBEG">      0.00010000</i>
   <i name="TEEND">      0.00010000</i>
   <i type="int" name="NBLOCK">     1</i>
   <i type="int" name="KBLOCK">  5000</i>
   <i type="int" name="NPACO">   256</i>
   <i name="APACO">     10.00000000</i>
  </separator>
  <separator name="symmetry" >
   <i type="int" name="ISYM">     2</i>
   <i name="SYMPREC">      0.00001000</i>
  </separator>
  <separator name="dos" >
   <i type="int" name="LORBIT">     0</i>
   <v name="RWIGS">     -1.00000000     -1.00000000     -1.00000000</v>
   <i type="int" name="NEDOS">   301</i>
   <i name="EMIN">     10.00000000</i>
   <i name="EMAX">    -10.00000000</i>
   <i name="EFERMI">      0.00000000</i>
  </separator>
  <separator name="writing" >
   <i type="int" name="NWRITE">     2</i>
   <i type="logical" name="LWAVE"> F  </i>
   <i type="logical" name="LDOWNSAMPLE"> F  </i>
   <i type="logical" name="LCHARG"> F  </i>
   <i type="logical" name="LPARD"> F  </i>
   <i type="logical" name="LVTOT"> F  </i>
   <i type="logical" name="LVHAR"> F  </i>
   <i type="logical" name="LELF"> F  </i>
   <i type="logical" name="LOPTICS"> F  </i>
   <v name="STM">      0.00000000      0.00000000      0.00000000      0.00000000      0.00000000      0.00000000      0.00000000</v>
  </separator>
  <separator name="performance" >
   <i type="int" name="NPAR">     2</i>
   <i type="int" name="NSIM">     4</i>
   <i type="int" name="NBLK">    -1</i>
   <i type="logical" name="LPLANE"> T  </i>
   <i type="logical" name="LSCALAPACK"> T  </i>
   <i type="logical" name="LSCAAWARE"> F  </i>
   <i type="logical" name="LSCALU"> F  </i>
   <i type="logical" name="LASYNC"> F  </i>
   <i type="logical" name="LORBITALREAL"> F  </i>
  </separator>
  <separator name="miscellaneous" >
   <i type="int" name="IDIOT">     3</i>
   <i type="int" name="PHON_NSTRUCT">    -1</i>
   <i type="logical" name="LMUSIC"> F  </i>
   <v name="POMASS">     12.01100000      1.00000000     14.00100000</v>
   <v name="DARWINR">      0.00000000      0.00000000      0.00000000</v>
   <v name="DARWINV">      1.00000000      1.00000000      1.00000000</v>
   <i type="logical" name="LCORR"> T  </i>
  </separator>
  <i type="logical" name="GGA_COMPAT"> T  </i>
  <i type="logical" name="LBERRY"> F  </i>
  <i type="int" name="ICORELEVEL">     0</i>
  <i type="logical" name="LDAU"> F  </i>
  <i type="int" name="I_CONSTRAINED_M">     0</i>
  <separator name="electronic exchange-correlation" >
   <i type="string" name="GGA">PE</i>
   <i type="int" name="VOSKOWN">     0</i>
   <i type="logical" name="LHFCALC"> F  </i>
   <i type="string" name="PRECFOCK"></i>
   <i type="logical" name="LSYMGRAD"> F  </i>
   <i type="logical" name="LHFONE"> F  </i>
   <i type="logical" name="LRHFCALC"> F  </i>
   <i type="logical" name="LTHOMAS"> F  </i>
   <i type="logical" name="LMODELHF"> F  </i>
   <i type="logical" name="LFOCKACE"> F  </i>
   <i name="ENCUT4O">     -1.00000000</i>
   <i type="int" name="EXXOEP">     0</i>
   <i type="int" name="FOURORBIT">     0</i>
   <i name="AEXX">      0.00000000</i>
   <i name="HFALPHA">      0.00000000</i>
   <i name="MCALPHA">      0.00000000</i>
   <i name="ALDAX">      1.00000000</i>
   <i name="AGGAX">      1.00000000</i>
   <i name="ALDAC">      1.00000000</i>
   <i name="AGGAC">      1.00000000</i>
   <i type="int" name="NKREDX">     1</i>
   <i type="int" name="NKREDY">     1</i>
   <i type="int" name="NKREDZ">     1</i>
   <i type="logical" name="SHIFTRED"> F  </i>
   <i type="logical" name="ODDONLY"> F  </i>
   <i type="logical" name="EVENONLY"> F  </i>
   <i type="int" name="LMAXFOCK">     0</i>
   <i type="int" name="NMAXFOCKAE">     0</i>
   <i type="logical" name="LFOCKAEDFT"> F  </i>
   <i name="HFSCREEN">      0.00000000</i>
   <i name="HFSCREENC">      0.00000000</i>
   <i type="int" name="NBANDSGWLOW">     0</i>
  </separator>
  <separator name="vdW DFT" >
   <i type="logical" name="LUSE_VDW"> F  </i>
   <i name="Zab_VDW">     -0.84910000</i>
   <i name="PARAM1">      0.12340000</i>
   <i name="PARAM2">      1.00000000</i>
   <i name="PARAM3">      0.00000000</i>
  </separator>
  <separator name="model GW" >
   <i type="int" name="MODEL_GW">     0</i>
   <i name="MODEL_EPS0">    128.95995071</i>
   <i name="MODEL_ALPHA">      1.00000000</i>
  </separator>
  <separator name="linear response parameters" >
   <i type="logical" name="LEPSILON"> F  </i>
   <i type="logical" name="LRPA"> F  </i>
   <i type="logical" name="LNABLA"> F  </i>
   <i type="logical" name="LVEL"> F  </i>
   <i name="CSHIFT">      0.10000000</i>
   <i name="OMEGAMAX">     -1.00000000</i>
   <i name="DEG_THRESHOLD">      0.00200000</i>
   <i name="RTIME">     -0.10000000</i>
   <i name="WPLASMAI">      0.00000000</i>
   <v name="DFIELD">      0.00000000      0.00000000      0.00000000</v>
   <v name="WPLASMA">      0.00000000      0.00000000      0.00000000      0.00000000      0.00000000      0.00000000      0.00000000      0.00000000      0.00000000</v>
  </separator>
  <separator name="orbital magnetization" >
   <i type="logical" name="NUCIND"> F  </i>
   <v name="MAGPOS">      0.00000000      0.00000000      0.00000000</v>
   <i type="logical" name="LNICSALL"> T  </i>
   <i type="logical" name="ORBITALMAG"> F  </i>
   <i type="logical" name="LMAGBLOCH"> F  </i>
   <i type="logical" name="LCHIMAG"> F  </i>
   <i type="logical" name="LGAUGE"> T  </i>
   <i type="int" name="MAGATOM">     0</i>
   <v name="MAGDIPOL">      0.00000000      0.00000000      0.00000000</v>
   <v name="AVECCONST">      0.00000000      0.00000000      0.00000000</v>
  </separator>
  <separator name="response functions" >
   <i type="logical" name="LFINITE_TEMPERATURE"> F  </i>
   <i type="logical" name="LADDER"> F  </i>
   <i type="logical" name="LRPAFORCE"> F  </i>
   <i type="logical" name="LFXC"> F  </i>
   <i type="logical" name="LHARTREE"> T  </i>
   <i type="int" name="IBSE">     0</i>
   <v type="int" name="KPOINT">    -1     0     0     0</v>
   <i type="logical" name="LTCTC"> F  </i>
   <i type="logical" name="LTCTE"> F  </i>
   <i type="logical" name="LTETE"> F  </i>
   <i type="logical" name="LTRIPLET"> F  </i>
   <i type="logical" name="LFXCEPS"> F  </i>
   <i type="logical" name="LFXHEG"> F  </i>
   <i type="int" name="NATURALO">     2</i>
   <i type="logical" name="LHOLEGF"> F  </i>
   <i type="logical" name="L2ORDER"> F  </i>
   <i type="logical" name="LDMP1"> F  </i>
   <i type="logical" name="LMP2LT"> F  </i>
   <i type="logical" name="LSMP2LT"> F  </i>
   <i type="logical" name="LGWLF"> F  </i>
   <i name="ENCUTGW">     -2.00000000</i>
   <i name="ENCUTGWSOFT">     -2.00000000</i>
   <i name="ENCUTLF">     -1.00000000</i>
   <i type="logical" name="LESF_SPLINES"> F  </i>
   <i type="int" name="LMAXMP2">    -1</i>
   <i name="SCISSOR">      0.00000000</i>
   <i type="int" name="NOMEGA">     0</i>
   <i type="int" name="NOMEGAR">     0</i>
   <i type="int" name="NBANDSGW">    -1</i>
   <i type="int" name="NBANDSO">    -1</i>
   <i type="int" name="NBANDSV">    -1</i>
   <i type="int" name="NELMGW">     1</i>
   <i type="int" name="NELMHF">     1</i>
   <i type="int" name="DIM">     3</i>
   <i type="int" name="IESPILON">     4</i>
   <i type="int" name="ANTIRES">     0</i>
   <i name="OMEGAMAX">    -30.00000000</i>
   <i name="OMEGAMIN">    -30.00000000</i>
   <i name="OMEGATL">   -200.00000000</i>
   <i type="int" name="OMEGAGRID">     0</i>
   <i name="CSHIFT">     -0.10000000</i>
   <i type="logical" name="LSELFENERGY"> F  </i>
   <i type="logical" name="LSPECTRAL"> F  </i>
   <i type="logical" name="LSPECTRALGW"> F  </i>
   <i type="logical" name="LSINGLES"> F  </i>
   <i type="logical" name="LFERMIGW"> F  </i>
   <i type="logical" name="ODDONLYGW"> F  </i>
   <i type="logical" name="EVENONLYGW"> F  </i>
   <i type="int" name="NKREDLFX">     1</i>
   <i type="int" name="NKREDLFY">     1</i>
   <i type="int" name="NKREDLFZ">     1</i>
   <i type="int" name="MAXMEM">  2800</i>
   <i type="int" name="TELESCOPE">     0</i>
   <i type="int" name="NTAUPAR">    -1</i>
   <i type="int" name="NOMEGAPAR">    -1</i>
   <i name="DAMP_NEWTON">      0.80000001</i>
   <i name="LAMBDA">      1.00000000</i>
  </separator>
  <separator name="External order field" >
   <i name="OFIELD_KAPPA">      0.00000000</i>
   <v name="OFIELD_K">      0.00000000      0.00000000      0.00000000</v>
   <i name="OFIELD_Q6_NEAR">      0.00000000</i>
   <i name="OFIELD_Q6_FAR">      0.00000000</i>
   <i name="OFIELD_A">      0.00000000</i>
  </separator>
  <separator name="optional k-points parameters" >
   <i type="int" name="KPOINTS_OPT_MODE">     1</i>
   <i type="logical" name="LKPOINTS_OPT"> F  </i>
  </separator>
 </parameters>
 <atominfo>
  <atoms>      17 </atoms>
  <types>       3 </types>
  <array name="atoms" >
   <dimension dim="1">ion</dimension>
   <field type="string">element</field>
   <field type="int">atomtype</field>
   <set>
    <rc><c>C </c><c>   1</c></rc>
    <rc><c>C </c><c>   1</c></rc>
    <rc><c>C </c><c>   1</c></rc>
    <rc><c>C </c><c>   1</c></rc>
    <rc><c>C </c><c>   1</c></rc>
    <rc><c>C </c><c>   1</c></rc>
    <rc><c>C </c><c>   1</c></rc>
    <rc><c>H </c><c>   2</c></rc>
    <rc><c>H </c><c>   2</c></rc>
    <rc><c>H </c><c>   2</c></rc>
    <rc><c>H </c><c>   2</c></rc>
    <rc><c>H </c><c>   2</c></rc>
    <rc><c>H </c><c>   2</c></rc>
    <rc><c>H </c><c>   2</c></rc>
    <rc><c>H </c><c>   2</c></rc>
    <rc><c>H </c><c>   2</c></rc>
    <rc><c>N </c><c>   3</c></rc>
   </set>
  </array>
  <array name="atomtypes" >
   <dimension dim="1">type</dimension>
   <field type="int">atomspertype</field>
   <field type="string">element</field>
   <field>mass</field>
   <field>valence</field>
   <field type="string">pseudopotential</field>
   <set>
    <rc><c>   7</c><c>C </c><c>     12.01100000</c><c>      4.00000000</c><c>  PAW_PBE C 08Apr2002                   </c></rc>
    <rc><c>   9</c><c>H </c><c>      1.00000000</c><c>      1.00000000</c><c>  PAW_PBE H 15Jun2001                   </c></rc>
    <rc><c>   1</c><c>N </c><c>     14.00100000</c><c>      5.00000000</c><c>  PAW_PBE N 08Apr2002                   </c></rc>
   </set>
  </array>
 </atominfo>
 <structure name="initialpos" >
  <crystal>
   <varray name="basis" >
    <v>      15.40225029       0.00000000       0.00000000 </v>
    <v>       0.00000000      15.40225029       0.00000000 </v>
    <v>       0.00000000       0.00000000      15.40225029 </v>
   </varray>
   <i name="volume">   3653.86527022 </i>
   <varray name="rec_basis" >
    <v>       0.06492558       0.00000000       0.00000000 </v>
    <v>       0.00000000       0.06492558       0.00000000 </v>
    <v>       0.00000000       0.00000000       0.06492558 </v>
   </varray>
  </crystal>
  <varray name="positions" >
   <v>       0.33640521       0.44163629       0.56655582 </v>
   <v>       0.33591225       0.52832280       0.57298262 </v>
   <v>       0.41557417       0.58038650       0.55598477 </v>
   <v>       0.41415094       0.39054052       0.54009358 </v>
   <v>       0.49332274       0.44461995       0.51169190 </v>
   <v>       0.46950244       0.53664089       0.48406204 </v>
   <v>       0.54697402       0.58661610       0.46440071 </v>
   <v>       0.27823398       0.40395809       0.58050452 </v>
   <v>       0.43526410       0.34786099       0.59319258 </v>
   <v>       0.39580418       0.34574433       0.48803630 </v>
   <v>       0.27646088       0.56200073       0.59097183 </v>
   <v>       0.45815348       0.58419860       0.61286603 </v>
   <v>       0.39950913       0.64748114       0.53894403 </v>
   <v>       0.52838358       0.41156414       0.45936295 </v>
   <v>       0.53883474       0.45010100       0.56566184 </v>
   <v>       0.42970946       0.53360375       0.42523749 </v>
   <v>       0.61036748       0.62583218       0.45115279 </v>
  </varray>
 </structure>
 <calculation>
  <scstep>
   <time name="dav">    2.05    2.07</time>
   <time name="total">    3.60    3.62</time>
   <energy>
    <i name="alphaZ">      2.15216506 </i>
    <i name="ewald">   2577.97445541 </i>
    <i name="hartreedc">  -3513.75746990 </i>
    <i name="XCdc">    131.51533650 </i>
    <i name="pawpsdc">    983.79330320 </i>
    <i name="pawaedc">   -989.05002801 </i>
    <i name="eentropy">     -0.05290716 </i>
    <i name="bandstr">   -258.89007255 </i>
    <i name="atom">   1406.67326350 </i>
    <i name="e_fr_energy">    340.35804605 </i>
    <i name="e_wo_entrp">    340.41095322 </i>
    <i name="e_0_energy">    340.38449963 </i>
   </energy>
  </scstep>
  <scstep>
   <time name="dav">    2.70    2.70</time>
   <time name="total">    2.70    2.70</time>
   <energy>
    <i name="e_fr_energy">     59.05071174 </i>
    <i name="e_wo_entrp">     59.05071174 </i>
    <i name="e_0_energy">     59.05071174 </i>
   </energy>
  </scstep>
  <scstep>
   <time name="dav">    1.68    1.68</time>
   <time name="total">    1.68    1.68</time>
   <energy>
    <i name="e_fr_energy">    -93.23565710 </i>
    <i name="e_wo_entrp">    -93.23565710 </i>
    <i name="e_0_energy">    -93.23565710 </i>
   </energy>
  </scstep>
  <scstep>
   <time name="dav">    3.71    3.71</time>
   <time name="total">    3.71    3.71</time>
   <energy>
    <i name="e_fr_energy">   -113.99058257 </i>
    <i name="e_wo_entrp">   -113.99058257 </i>
    <i name="e_0_energy">   -113.99058257 </i>
   </energy>
  </scstep>
  <scstep>
   <time name="dav">    3.27    3.31</time>
   <time name="total">    3.75    3.79</time>
   <energy>
    <i name="e_fr_energy">   -114.25058245 </i>
    <i name="e_wo_entrp">   -114.25058245 </i>
    <i name="e_0_energy">   -114.25058245 </i>
   </energy>
  </scstep>
  <scstep>
   <time name="diag">    0.46    0.46</time>
   <time name="diis">    2.87    2.87</time>
   <time name="orth">    0.03    0.03</time>
   <time name="total">    5.91    5.91</time>
   <energy>
    <i name="e_fr_energy">   -105.81581565 </i>
    <i name="e_wo_entrp">   -105.81581565 </i>
    <i name="e_0_energy">   -105.81581565 </i>
   </energy>
  </scstep>
  <scstep>
   <time name="diag">    0.18    0.18</time>
   <time name="diis">    1.16    1.16</time>
   <time name="orth">    0.01    0.01</time>
   <time name="total">    2.84    2.84</time>
   <energy>
    <i name="e_fr_energy">   -103.72693249 </i>
    <i name="e_wo_entrp">   -103.72693249 </i>
    <i name="e_0_energy">   -103.72693249 </i>
   </energy>
  </scstep>
  <scstep>
   <time name="diag">    0.27    0.27</time>
   <time name="diis">    1.40    1.40</time>
   <time name="orth">    0.01    0.01</time>
   <time name="total">    3.00    3.00</time>
   <energy>
    <i name="e_fr_energy">   -103.54503859 </i>
    <i name="e_wo_entrp">   -103.54503859 </i>
    <i name="e_0_energy">   -103.54503859 </i>
   </energy>
  </scstep>
  <scstep>
   <time name="diag">    0.24    0.24</time>
   <time name="diis">    1.38    1.38</time>
   <time name="orth">    0.01    0.01</time>
   <time name="total">    2.67    2.67</time>
   <energy>
    <i name="e_fr_energy">   -103.44132243 </i>
    <i name="e_wo_entrp">   -103.44132243 </i>
    <i name="e_0_energy">   -103.44132243 </i>
   </energy>
  </scstep>
  <scstep>
   <time name="diag">    0.27    0.27</time>
   <time name="diis">    1.54    1.54</time>
   <time name="orth">    0.01    0.01</time>
   <time name="total">    3.28    3.29</time>
   <energy>
    <i name="e_fr_energy">   -103.43795788 </i>
    <i name="e_wo_entrp">   -103.43795788 </i>
    <i name="e_0_energy">   -103.43795788 </i>
   </energy>
  </scstep>
  <scstep>
   <time name="diag">    0.21    0.21</time>
   <time name="diis">    1.89    1.89</time>
   <time name="orth">    0.01    0.01</time>
   <time name="total">    3.81    3.82</time>
   <energy>
    <i name="e_fr_energy">   -103.44889181 </i>
    <i name="e_wo_entrp">   -103.44889181 </i>
    <i name="e_0_energy">   -103.44889181 </i>
   </energy>
  </scstep>
  <scstep>
   <time name="diag">    0.46    0.46</time>
   <time name="diis">    1.91    1.91</time>
   <time name="orth">    0.01    0.01</time>
   <time name="total">    4.20    4.21</time>
   <energy>
    <i name="e_fr_energy">   -103.44308297 </i>
    <i name="e_wo_entrp">   -103.44308297 </i>
    <i name="e_0_energy">   -103.44308297 </i>
   </energy>
  </scstep>
  <scstep>
   <time name="diag">    0.39    0.39</time>
   <time name="diis">    2.44    2.44</time>
   <time name="orth">    0.02    0.02</time>
   <time name="total">    4.97    4.98</time>
   <energy>
    <i name="e_fr_energy">   -103.44963839 </i>
    <i name="e_wo_entrp">   -103.44963839 </i>
    <i name="e_0_energy">   -103.44963839 </i>
   </energy>
  </scstep>
  <scstep>
   <time name="diag">    0.46    0.46</time>
   <time name="diis">    2.52    2.52</time>
   <time name="orth">    0.02    0.02</time>
   <time name="total">    4.96    4.96</time>
   <energy>
    <i name="e_fr_energy">   -103.45242124 </i>
    <i name="e_wo_entrp">   -103.45242124 </i>
    <i name="e_0_energy">   -103.45242124 </i>
   </energy>
  </scstep>
  <scstep>
   <time name="diag">    0.45    0.45</time>
   <time name="diis">    2.19    2.19</time>
   <time name="orth">    0.01    0.01</time>
   <time name="total">    4.73    4.73</time>
   <energy>
    <i name="e_fr_energy">   -103.46316302 </i>
    <i name="e_wo_entrp">   -103.46316302 </i>
    <i name="e_0_energy">   -103.46316302 </i>
   </energy>
  </scstep>
  <scstep>
   <time name="diag">    0.43    0.44</time>
   <time name="diis">    2.57    2.57</time>
   <time name="orth">    0.02    0.02</time>
   <time name="total">    5.10    5.11</time>
   <energy>
    <i name="e_fr_energy">   -103.46640889 </i>
    <i name="e_wo_entrp">   -103.46640889 </i>
    <i name="e_0_energy">   -103.46640889 </i>
   </energy>
  </scstep>
  <scstep>
   <time name="diag">    0.34    0.34</time>
   <time name="diis">    2.16    2.16</time>
   <time name="orth">    0.02    0.02</time>
   <time name="total">    4.50    4.50</time>
   <energy>
    <i name="e_fr_energy">   -103.46998963 </i>
    <i name="e_wo_entrp">   -103.46998963 </i>
    <i name="e_0_energy">   -103.46998963 </i>
   </energy>
  </scstep>
  <scstep>
   <time name="diag">    0.27    0.27</time>
   <time name="diis">    1.99    1.99</time>
   <time name="orth">    0.01    0.01</time>
   <time name="total">    3.96    3.97</time>
   <energy>
    <i name="e_fr_energy">   -103.47087045 </i>
    <i name="e_wo_entrp">   -103.47087045 </i>
    <i name="e_0_energy">   -103.47087045 </i>
   </energy>
  </scstep>
  <scstep>
   <time name="diag">    0.43    0.43</time>
   <time name="diis">    2.31    2.31</time>
   <time name="orth">    0.01    0.01</time>
   <time name="total">    4.83    4.84</time>
   <energy>
    <i name="e_fr_energy">   -103.47157300 </i>
    <i name="e_wo_entrp">   -103.47157300 </i>
    <i name="e_0_energy">   -103.47157300 </i>
   </energy>
  </scstep>
  <scstep>
   <time name="diag">    0.37    0.37</time>
   <time name="diis">    1.87    1.87</time>
   <time name="orth">    0.02    0.02</time>
   <time name="total">    4.37    4.37</time>
   <energy>
    <i name="e_fr_energy">   -103.47168962 </i>
    <i name="e_wo_entrp">   -103.47168962 </i>
    <i name="e_0_energy">   -103.47168962 </i>
   </energy>
  </scstep>
  <scstep>
   <time name="diag">    0.26    0.26</time>
   <time name="diis">    1.72    1.72</time>
   <time name="orth">    0.01    0.01</time>
   <time name="total">    3.90    3.90</time>
   <energy>
    <i name="e_fr_energy">   -103.47181581 </i>
    <i name="e_wo_entrp">   -103.47181581 </i>
    <i name="e_0_energy">   -103.47181581 </i>
   </energy>
  </scstep>
  <scstep>
   <time name="diag">    0.44    0.44</time>
   <time name="diis">    1.63    1.63</time>
   <time name="orth">    0.02    0.02</time>
   <time name="total">    4.10    4.10</time>
   <energy>
    <i name="e_fr_energy">   -103.47185301 </i>
    <i name="e_wo_entrp">   -103.47185301 </i>
    <i name="e_0_energy">   -103.47185301 </i>
   </energy>
  </scstep>
  <scstep>
   <time name="diag">    0.44    0.44</time>
   <time name="diis">    1.56    1.56</time>
   <time name="orth">    0.01    0.01</time>
   <time name="total">    4.05    4.05</time>
   <energy>
    <i name="e_fr_energy">   -103.47187963 </i>
    <i name="e_wo_entrp">   -103.47187963 </i>
    <i name="e_0_energy">   -103.47187963 </i>
   </energy>
  </scstep>
  <scstep>
   <time name="diag">    0.52    0.52</time>
   <time name="diis">    1.63    1.63</time>
   <time name="orth">    0.02    0.02</time>
   <time name="total">    3.91    3.91</time>
   <energy>
    <i name="alphaZ">      2.15216506 </i>
    <i name="ewald">   2577.97445541 </i>
    <i name="hartreedc">  -3710.21650185 </i>
    <i name="XCdc">    140.90434815 </i>
    <i name="pawpsdc">   3514.55459949 </i>
    <i name="pawaedc">  -3520.88694507 </i>
    <i name="eentropy">     -0.00000000 </i>
    <i name="bandstr">   -514.62727312 </i>
    <i name="atom">   1406.67326350 </i>
    <i name="e_fr_energy">   -103.47188843 </i>
    <i name="e_wo_entrp">   -103.47188843 </i>
    <i name="e_0_energy">   -103.47188843 </i>
   </energy>
  </scstep>
  <structure>
   <crystal>
    <varray name="basis" >
     <v>      15.40225029       0.00000000       0.00000000 </v>
     <v>       0.00000000      15.40225029       0.00000000 </v>
     <v>       0.00000000       0.00000000      15.40225029 </v>
    </varray>
    <i name="volume">   3653.86527022 </i>
    <varray name="rec_basis" >
     <v>       0.06492558       0.00000000       0.00000000 </v>
     <v>       0.00000000       0.06492558       0.00000000 </v>
     <v>       0.00000000       0.00000000       0.06492558 </v>
    </varray>
   </crystal>
   <varray name="positions" >
    <v>       0.33640521       0.44163629       0.56655582 </v>
    <v>       0.33591225       0.52832280       0.57298262 </v>
    <v>       0.41557417       0.58038650       0.55598477 </v>
    <v>       0.41415094       0.39054052       0.54009358 </v>
    <v>       0.49332274       0.44461995       0.51169190 </v>
    <v>       0.46950244       0.53664089       0.48406204 </v>
    <v>       0.54697402       0.58661610       0.46440071 </v>
    <v>       0.27823398       0.40395809       0.58050452 </v>
    <v>       0.43526410       0.34786099       0.59319258 </v>
    <v>       0.39580418       0.34574433       0.48803630 </v>
    <v>       0.27646088       0.56200073       0.59097183 </v>
    <v>       0.45815348       0.58419860       0.61286603 </v>
    <v>       0.39950913       0.64748114       0.53894403 </v>
    <v>       0.52838358       0.41156414       0.45936295 </v>
    <v>       0.53883474       0.45010100       0.56566184 </v>
    <v>       0.42970946       0.53360375       0.42523749 </v>
    <v>       0.61036748       0.62583218       0.45115279 </v>
   </varray>
  </structure>
  <varray name="forces" >
   <v>      -0.03603573       0.08444843       0.05477169 </v>
   <v>      -0.13880731      -0.34671144       0.24748456 </v>
   <v>       0.16177541       0.23440539      -0.25079803 </v>
   <v>       0.31373470      -0.04355384      -0.14963553 </v>
   <v>       0.02619141      -0.27612560       0.11010092 </v>
   <v>      -0.13261507       0.18034692      -0.07736657 </v>
   <v>       0.07056036       0.00158930      -0.04369246 </v>
   <v>      -0.21085981       0.00741999      -0.00582827 </v>
   <v>      -0.06805395      -0.12749486       0.18631157 </v>
   <v>      -0.15902368      -0.16780457      -0.23965237 </v>
   <v>      -0.09512122       0.09458292       0.09732947 </v>
   <v>      -0.00341624       0.08076630       0.37196063 </v>
   <v>      -0.02279251       0.14682449      -0.13177643 </v>
   <v>       0.06273844      -0.05624916      -0.09753902 </v>
   <v>       0.24419476       0.01176102       0.27324557 </v>
   <v>      -0.16965911       0.04428272      -0.29009029 </v>
   <v>       0.15718955       0.13151198      -0.05482545 </v>
  </varray>
  <varray name="stress" >
   <v>       0.01262218       0.13179364      -0.02452892 </v>
   <v>       0.13179364       0.05760434      -0.04537094 </v>
   <v>      -0.02452893      -0.04537094      -0.07108595 </v>
  </varray>
  <energy>
   <i name="e_fr_energy">   -103.66875747 </i>
   <i name="e_wo_entrp">   -103.66875747 </i>
   <i name="e_0_energy">   -103.66875747 </i>
  </energy>
  <time name="totalsc">  127.08  127.25</time>
 </calculation>
 <calculation>
  <scstep>
   <time name="dav">    3.35    3.35</time>
   <time name="total">    5.86    5.86</time>
   <energy>
    <i name="alphaZ">      2.15216506 </i>
    <i name="ewald">   2574.62458759 </i>
    <i name="hartreedc">  -3707.53392170 </i>
    <i name="XCdc">    140.85638216 </i>
    <i name="pawpsdc">   3514.51724026 </i>
    <i name="pawaedc">  -3520.84960475 </i>
    <i name="eentropy">     -0.00000000 </i>
    <i name="bandstr">   -513.92250290 </i>
    <i name="atom">   1406.67326350 </i>
    <i name="e_fr_energy">   -103.48239079 </i>
    <i name="e_wo_entrp">   -103.48239079 </i>
    <i name="e_0_energy">   -103.48239079 </i>
   </energy>
  </scstep>
  <scstep>
   <time name="diag">    0.55    0.55</time>
   <time name="diis">    2.83    2.83</time>
   <time name="orth">    0.02    0.02</time>
   <time name="total">    5.82    5.82</time>
   <energy>
    <i name="e_fr_energy">   -103.48244230 </i>
    <i name="e_wo_entrp">   -103.48244230 </i>
    <i name="e_0_energy">   -103.48244230 </i>
   </energy>
  </scstep>
  <scstep>
   <time name="diag">    0.62    0.63</time>
   <time name="diis">    2.79    2.80</time>
   <time name="orth">    0.02    0.03</time>
   <time name="total">    5.93    5.97</time>
   <energy>
    <i name="e_fr_energy">   -103.48240330 </i>
    <i name="e_wo_entrp">   -103.48240330 </i>
    <i name="e_0_energy">   -103.48240330 </i>
   </energy>
  </scstep>
  <scstep>
   <time name="diag">    0.62    0.62</time>
   <time name="diis">    2.36    2.36</time>
   <time name="orth">    0.02    0.02</time>
   <time name="total">    5.44    5.44</time>
   <energy>
    <i name="e_fr_energy">   -103.48241924 </i>
    <i name="e_wo_entrp">   -103.48241924 </i>
    <i name="e_0_energy">   -103.48241924 </i>
   </energy>
  </scstep>
  <scstep>
   <time name="diag">    0.56    0.56</time>
   <time name="diis">    1.43    1.43</time>
   <time name="orth">    0.01    0.01</time>
   <time name="total">    3.85    3.85</time>
   <energy>
    <i name="alphaZ">      2.15216506 </i>
    <i name="ewald">   2574.62458759 </i>
    <i name="hartreedc">  -3707.08689492 </i>
    <i name="XCdc">    140.83745601 </i>
    <i name="pawpsdc">   3505.35650376 </i>
    <i name="pawaedc">  -3511.68294316 </i>
    <i name="eentropy">     -0.00000000 </i>
    <i name="bandstr">   -514.35656301 </i>
    <i name="atom">   1406.67326350 </i>
    <i name="e_fr_energy">   -103.48242517 </i>
    <i name="e_wo_entrp">   -103.48242517 </i>
    <i name="e_0_energy">   -103.48242517 </i>
   </energy>
  </scstep>
  <structure>
   <crystal>
    <varray name="basis" >
     <v>      15.40225029       0.00000000       0.00000000 </v>
     <v>       0.00000000      15.40225029       0.00000000 </v>
     <v>       0.00000000       0.00000000      15.40225029 </v>
    </varray>
    <i name="volume">   3653.86527022 </i>
    <varray name="rec_basis" >
     <v>       0.06492558       0.00000000       0.00000000 </v>
     <v>       0.00000000       0.06492558       0.00000000 </v>
     <v>       0.00000000       0.00000000       0.06492558 </v>
    </varray>
   </crystal>
   <varray name="positions" >
    <v>       0.33638312       0.44168916       0.56659097 </v>
    <v>       0.33582572       0.52810560       0.57313826 </v>
    <v>       0.41567548       0.58053380       0.55582744 </v>
    <v>       0.41434713       0.39051278       0.53999858 </v>
    <v>       0.49334052       0.44444736       0.51176417 </v>
    <v>       0.46942015       0.53675347       0.48401443 </v>
    <v>       0.54701881       0.58661704       0.46437415 </v>
    <v>       0.27810254       0.40396274       0.58050260 </v>
    <v>       0.43521932       0.34777594       0.59330627 </v>
    <v>       0.39570358       0.34564210       0.48788093 </v>
    <v>       0.27640181       0.56205974       0.59103426 </v>
    <v>       0.45815108       0.58425122       0.61309900 </v>
    <v>       0.39949416       0.64757318       0.53886003 </v>
    <v>       0.52842883       0.41152882       0.45930728 </v>
    <v>       0.53898594       0.45011076       0.56584003 </v>
    <v>       0.42960456       0.53362955       0.42505619 </v>
    <v>       0.61046640       0.62591482       0.45111943 </v>
   </varray>
  </structure>
  <varray name="forces" >
   <v>      -0.01390139      -0.16920089       0.02998974 </v>
   <v>      -0.04806890      -0.00982462       0.20720154 </v>
   <v>       0.08246787       0.12050727      -0.07150735 </v>
   <v>       0.14854548      -0.12313290      -0.09625204 </v>
   <v>       0.10932418      -0.13514308       0.09305095 </v>
   <v>      -0.08492856       0.08356756      -0.10900984 </v>
   <v>       0.17808186       0.07446438      -0.07611027 </v>
   <v>      -0.15536883       0.02176854      -0.01475104 </v>
   <v>      -0.07849957      -0.09964580       0.13329976 </v>
   <v>      -0.12483125      -0.11540633      -0.17999920 </v>
   <v>      -0.06447290       0.06027353       0.09376062 </v>
   <v>      -0.05696776       0.08366573       0.25980600 </v>
   <v>      -0.03227947       0.15872406      -0.13336411 </v>
   <v>       0.05933326      -0.04572183      -0.07476056 </v>
   <v>       0.18520744       0.00310723       0.20165100 </v>
   <v>      -0.13272190       0.04501824      -0.23685544 </v>
   <v>       0.02908045       0.04697890      -0.02614976 </v>
  </varray>
  <varray name="stress" >
   <v>      -0.20698051       0.09636556      -0.07419677 </v>
   <v>       0.09636556       0.01447107      -0.02770050 </v>
   <v>      -0.07419677      -0.02770050      -0.21449435 </v>
  </varray>
  <energy>
   <i name="e_fr_energy">   -103.67933741 </i>
   <i name="e_wo_entrp">   -103.67933741 </i>
   <i name="e_0_energy">   -103.67933741 </i>
  </energy>
  <time name="totalsc">   37.14   37.25</time>
 </calculation>
 <calculation>
  <scstep>
   <time name="dav">    3.10    3.10</time>
   <time name="total">    5.72    5.80</time>
   <energy>
    <i name="alphaZ">      2.15216506 </i>
    <i name="ewald">   2570.34424771 </i>
    <i name="hartreedc">  -3703.43762703 </i>
    <i name="XCdc">    140.78334447 </i>
    <i name="pawpsdc">   3504.56573479 </i>
    <i name="pawaedc">  -3510.89206419 </i>
    <i name="eentropy">     -0.00000000 </i>
    <i name="bandstr">   -513.67950881 </i>
    <i name="atom">   1406.67326350 </i>
    <i name="e_fr_energy">   -103.49044451 </i>
    <i name="e_wo_entrp">   -103.49044451 </i>
    <i name="e_0_energy">   -103.49044451 </i>
   </energy>
  </scstep>
  <scstep>
   <time name="diag">    0.57    0.57</time>
   <time name="diis">    2.68    2.68</time>
   <time name="orth">    0.02    0.03</time>
   <time name="total">    5.72    5.72</time>
   <energy>
    <i name="e_fr_energy">   -103.49040953 </i>
    <i name="e_wo_entrp">   -103.49040953 </i>
    <i name="e_0_energy">   -103.49040953 </i>
   </energy>
  </scstep>
  <scstep>
   <time name="diag">    0.38    0.38</time>
   <time name="diis">    2.95    2.95</time>
   <time name="orth">    0.01    0.01</time>
   <time name="total">    5.12    5.12</time>
   <energy>
    <i name="e_fr_energy">   -103.49036436 </i>
    <i name="e_wo_entrp">   -103.49036436 </i>
    <i name="e_0_energy">   -103.49036436 </i>
   </energy>
  </scstep>
  <scstep>
   <time name="diag">    0.48    0.48</time>
   <time name="diis">    2.71    2.71</time>
   <time name="orth">    0.01    0.02</time>
   <time name="total">    5.01    5.02</time>
   <energy>
    <i name="e_fr_energy">   -103.49038278 </i>
    <i name="e_wo_entrp">   -103.49038278 </i>
    <i name="e_0_energy">   -103.49038278 </i>
   </energy>
  </scstep>
  <scstep>
   <time name="diag">    0.30    0.30</time>
   <time name="diis">    1.50    1.50</time>
   <time name="orth">    0.02    0.02</time>
   <time name="total">    3.29    3.31</time>
   <energy>
    <i name="alphaZ">      2.15216506 </i>
    <i name="ewald">   2570.34424771 </i>
    <i name="hartreedc">  -3703.04001211 </i>
    <i name="XCdc">    140.77116041 </i>
    <i name="pawpsdc">   3495.41693731 </i>
    <i name="pawaedc">  -3501.73946398 </i>
    <i name="eentropy">     -0.00000000 </i>
    <i name="bandstr">   -514.06868327 </i>
    <i name="atom">   1406.67326350 </i>
    <i name="e_fr_energy">   -103.49038537 </i>
    <i name="e_wo_entrp">   -103.49038537 </i>
    <i name="e_0_energy">   -103.49038537 </i>
   </energy>
  </scstep>
  <structure>
   <crystal>
    <varray name="basis" >
     <v>      15.40225029       0.00000000       0.00000000 </v>
     <v>       0.00000000      15.40225029       0.00000000 </v>
     <v>       0.00000000       0.00000000      15.40225029 </v>
    </varray>
    <i name="volume">   3653.86527022 </i>
    <varray name="rec_basis" >
     <v>       0.06492558       0.00000000       0.00000000 </v>
     <v>       0.00000000       0.06492558       0.00000000 </v>
     <v>       0.00000000       0.00000000       0.06492558 </v>
    </varray>
   </crystal>
   <varray name="positions" >
    <v>       0.33636909       0.44152881       0.56661795 </v>
    <v>       0.33577938       0.52809631       0.57333356 </v>
    <v>       0.41575370       0.58064721       0.55576006 </v>
    <v>       0.41448855       0.39039686       0.53990959 </v>
    <v>       0.49344169       0.44431855       0.51184640 </v>
    <v>       0.46933820       0.53683338       0.48390954 </v>
    <v>       0.54718657       0.58668772       0.46430053 </v>
    <v>       0.27795411       0.40398337       0.58048551 </v>
    <v>       0.43514875       0.34769084       0.59343804 </v>
    <v>       0.39558708       0.34552753       0.48771974 </v>
    <v>       0.27633976       0.56211730       0.59112051 </v>
    <v>       0.45809755       0.58432689       0.61334536 </v>
    <v>       0.39946481       0.64772353       0.53873622 </v>
    <v>       0.52847430       0.41148562       0.45922666 </v>
    <v>       0.53916464       0.45010940       0.56601850 </v>
    <v>       0.42947627       0.53367572       0.42483090 </v>
    <v>       0.61049317       0.62595888       0.45109287 </v>
   </varray>
  </structure>
  <varray name="forces" >
   <v>       0.01478178      -0.01558281       0.03044327 </v>
   <v>       0.01805160      -0.09138129       0.14371985 </v>
   <v>       0.02958187       0.09675910       0.01470221 </v>
   <v>       0.05134960      -0.16170683      -0.05400039 </v>
   <v>       0.12410421      -0.04059264       0.05466246 </v>
   <v>       0.00050559       0.03632602      -0.10965760 </v>
   <v>      -0.11124431      -0.09410684      -0.02354108 </v>
   <v>      -0.13733690       0.00490409      -0.01598979 </v>
   <v>      -0.07944653      -0.08843978       0.08684735 </v>
   <v>      -0.08843746      -0.08329543      -0.13560702 </v>
   <v>      -0.05535857       0.04815651       0.09778924 </v>
   <v>      -0.08399428       0.08771009       0.17289587 </v>
   <v>      -0.02402157       0.12332797      -0.11675578 </v>
   <v>       0.05777432      -0.03415117      -0.04473119 </v>
   <v>       0.13916691      -0.00165640       0.14429927 </v>
   <v>      -0.09204116       0.04341423      -0.17778800 </v>
   <v>       0.23656491       0.17031518      -0.06728866 </v>
  </varray>
  <varray name="stress" >
   <v>      -0.27522213       0.13599872      -0.12773955 </v>
   <v>       0.13599872      -0.16055533      -0.02829324 </v>
   <v>      -0.12773955      -0.02829324      -0.35537962 </v>
  </varray>
  <energy>
   <i name="e_fr_energy">   -103.68737714 </i>
   <i name="e_wo_entrp">   -103.68737714 </i>
   <i name="e_0_energy">   -103.68737714 </i>
  </energy>
  <time name="totalsc">   37.29   37.42</time>
 </calculation>
 <calculation>
  <scstep>
   <time name="dav">    2.86    2.91</time>
   <time name="total">    5.46    5.52</time>
   <energy>
    <i name="alphaZ">      2.15216506 </i>
    <i name="ewald">   2567.56878522 </i>
    <i name="hartreedc">  -3700.84460224 </i>
    <i name="XCdc">    140.73363480 </i>
    <i name="pawpsdc">   3493.68568299 </i>
    <i name="pawaedc">  -3500.00818716 </i>
    <i name="eentropy">     -0.00000000 </i>
    <i name="bandstr">   -513.45471362 </i>
    <i name="atom">   1406.67326350 </i>
    <i name="e_fr_energy">   -103.49397145 </i>
    <i name="e_wo_entrp">   -103.49397145 </i>
    <i name="e_0_energy">   -103.49397145 </i>
   </energy>
  </scstep>
  <scstep>
   <time name="diag">    0.54    0.54</time>
   <time name="diis">    2.98    2.98</time>
   <time name="orth">    0.03    0.03</time>
   <time name="total">    6.12    6.15</time>
   <energy>
    <i name="e_fr_energy">   -103.49396090 </i>
    <i name="e_wo_entrp">   -103.49396090 </i>
    <i name="e_0_energy">   -103.49396090 </i>
   </energy>
  </scstep>
  <scstep>
   <time name="diag">    0.65    0.65</time>
   <time name="diis">    3.08    3.08</time>
   <time name="orth">    0.02    0.02</time>
   <time name="total">    6.33    6.33</time>
   <energy>
    <i name="e_fr_energy">   -103.49394238 </i>
    <i name="e_wo_entrp">   -103.49394238 </i>
    <i name="e_0_energy">   -103.49394238 </i>
   </energy>
  </scstep>
  <scstep>
   <time name="diag">    0.50    0.50</time>
   <time name="diis">    2.56    2.56</time>
   <time name="orth">    0.02    0.02</time>
   <time name="total">    5.10    5.10</time>
   <energy>
    <i name="alphaZ">      2.15216506 </i>
    <i name="ewald">   2567.56878522 </i>
    <i name="hartreedc">  -3700.39546892 </i>
    <i name="XCdc">    140.71496187 </i>
    <i name="pawpsdc">   3485.69920891 </i>
    <i name="pawaedc">  -3492.01533476 </i>
    <i name="eentropy">     -0.00000000 </i>
    <i name="bandstr">   -513.89152943 </i>
    <i name="atom">   1406.67326350 </i>
    <i name="e_fr_energy">   -103.49394855 </i>
    <i name="e_wo_entrp">   -103.49394855 </i>
    <i name="e_0_energy">   -103.49394855 </i>
   </energy>
  </scstep>
  <structure>
   <crystal>
    <varray name="basis" >
     <v>      15.40225029       0.00000000       0.00000000 </v>
     <v>       0.00000000      15.40225029       0.00000000 </v>
     <v>       0.00000000       0.00000000      15.40225029 </v>
    </varray>
    <i name="volume">   3653.86527022 </i>
    <varray name="rec_basis" >
     <v>       0.06492558       0.00000000       0.00000000 </v>
     <v>       0.00000000       0.06492558       0.00000000 </v>
     <v>       0.00000000       0.00000000       0.06492558 </v>
    </varray>
   </crystal>
   <varray name="positions" >
    <v>       0.33637215       0.44149465       0.56663428 </v>
    <v>       0.33577863       0.52805220       0.57343140 </v>
    <v>       0.41578074       0.58070995       0.55575630 </v>
    <v>       0.41453735       0.39030337       0.53987338 </v>
    <v>       0.49351218       0.44427673       0.51187512 </v>
    <v>       0.46932209       0.53686495       0.48383799 </v>
    <v>       0.54716105       0.58665586       0.46427458 </v>
    <v>       0.27786314       0.40398909       0.58046977 </v>
    <v>       0.43510658       0.34765181       0.59351013 </v>
    <v>       0.39552961       0.34546038       0.48764600 </v>
    <v>       0.27630186       0.56215018       0.59117599 </v>
    <v>       0.45805021       0.58437410       0.61346753 </v>
    <v>       0.39945086       0.64780612       0.53866553 </v>
    <v>       0.52848976       0.41146264       0.45917511 </v>
    <v>       0.53926500       0.45010082       0.56609338 </v>
    <v>       0.42940743       0.53370992       0.42470873 </v>
    <v>       0.61060664       0.62604485       0.45105391 </v>
   </varray>
  </structure>
  <varray name="forces" >
   <v>       0.00953788      -0.03356976       0.02867064 </v>
   <v>       0.02388315      -0.04780769       0.12587390 </v>
   <v>       0.00786657       0.08173153       0.03277431 </v>
   <v>       0.02087198      -0.14629902      -0.03836622 </v>
   <v>       0.11410485      -0.02691241       0.04032125 </v>
   <v>      -0.01511296       0.00126431      -0.08938369 </v>
   <v>       0.16470364       0.08374444      -0.08787307 </v>
   <v>      -0.11281251       0.01177661      -0.01981277 </v>
   <v>      -0.07791976      -0.08791581       0.07038878 </v>
   <v>      -0.07436215      -0.07280508      -0.11907485 </v>
   <v>      -0.03263469       0.02949921       0.09418835 </v>
   <v>      -0.08907098       0.09023309       0.13966770 </v>
   <v>      -0.02151708       0.10158885      -0.10589709 </v>
   <v>       0.05956911      -0.02892401      -0.03125467 </v>
   <v>       0.11965180      -0.00247415       0.11884153 </v>
   <v>      -0.07276438       0.04046982      -0.14652184 </v>
   <v>      -0.02399446       0.00640007      -0.01254225 </v>
  </varray>
  <varray name="stress" >
   <v>      -0.44936616       0.07585990      -0.11459858 </v>
   <v>       0.07585990      -0.26727216      -0.01238298 </v>
   <v>      -0.11459858      -0.01238298      -0.42809360 </v>
  </varray>
  <energy>
   <i name="e_fr_energy">   -103.69095131 </i>
   <i name="e_wo_entrp">   -103.69095131 </i>
   <i name="e_0_energy">   -103.69095131 </i>
  </energy>
  <time name="totalsc">   36.67   36.76</time>
 </calculation>
 <calculation>
  <scstep>
   <time name="dav">    2.70    2.70</time>
   <time name="total">    5.33    5.33</time>
   <energy>
    <i name="alphaZ">      2.15216506 </i>
    <i name="ewald">   2566.14076257 </i>
    <i name="hartreedc">  -3699.16521689 </i>
    <i name="XCdc">    140.70041346 </i>
    <i name="pawpsdc">   3484.36098481 </i>
    <i name="pawaedc">  -3490.67735992 </i>
    <i name="eentropy">     -0.00000000 </i>
    <i name="bandstr">   -513.68101730 </i>
    <i name="atom">   1406.67326350 </i>
    <i name="e_fr_energy">   -103.49600470 </i>
    <i name="e_wo_entrp">   -103.49600470 </i>
    <i name="e_0_energy">   -103.49600470 </i>
   </energy>
  </scstep>
  <scstep>
   <time name="diag">    0.54    0.54</time>
   <time name="diis">    2.96    2.96</time>
   <time name="orth">    0.02    0.02</time>
   <time name="total">    6.08    6.09</time>
   <energy>
    <i name="e_fr_energy">   -103.49600323 </i>
    <i name="e_wo_entrp">   -103.49600323 </i>
    <i name="e_0_energy">   -103.49600323 </i>
   </energy>
  </scstep>
  <scstep>
   <time name="diag">    0.56    0.56</time>
   <time name="diis">    2.48    2.48</time>
   <time name="orth">    0.02    0.02</time>
   <time name="total">    5.13    5.13</time>
   <energy>
    <i name="alphaZ">      2.15216506 </i>
    <i name="ewald">   2566.14076257 </i>
    <i name="hartreedc">  -3699.07039032 </i>
    <i name="XCdc">    140.69897130 </i>
    <i name="pawpsdc">   3482.74176375 </i>
    <i name="pawaedc">  -3489.05750018 </i>
    <i name="eentropy">     -0.00000000 </i>
    <i name="bandstr">   -513.77503431 </i>
    <i name="atom">   1406.67326350 </i>
    <i name="e_fr_energy">   -103.49599864 </i>
    <i name="e_wo_entrp">   -103.49599864 </i>
    <i name="e_0_energy">   -103.49599864 </i>
   </energy>
  </scstep>
  <structure>
   <crystal>
    <varray name="basis" >
     <v>      15.40225029       0.00000000       0.00000000 </v>
     <v>       0.00000000      15.40225029       0.00000000 </v>
     <v>       0.00000000       0.00000000      15.40225029 </v>
    </varray>
    <i name="volume">   3653.86527022 </i>
    <varray name="rec_basis" >
     <v>       0.06492558       0.00000000       0.00000000 </v>
     <v>       0.00000000       0.06492558       0.00000000 </v>
     <v>       0.00000000       0.00000000       0.06492558 </v>
    </varray>
   </crystal>
   <varray name="positions" >
    <v>       0.33637819       0.44149281       0.56664664 </v>
    <v>       0.33579809       0.52801526       0.57349402 </v>
    <v>       0.41577872       0.58075232       0.55578794 </v>
    <v>       0.41453953       0.39021516       0.53986392 </v>
    <v>       0.49357255       0.44426991       0.51187275 </v>
    <v>       0.46931777       0.53686158       0.48377975 </v>
    <v>       0.54722730       0.58669004       0.46422189 </v>
    <v>       0.27779502       0.40399412       0.58044698 </v>
    <v>       0.43507375       0.34763420       0.59356478 </v>
    <v>       0.39549706       0.34540317       0.48761430 </v>
    <v>       0.27628082       0.56216724       0.59122297 </v>
    <v>       0.45799564       0.58441535       0.61353947 </v>
    <v>       0.39944352       0.64786124       0.53861410 </v>
    <v>       0.52848643       0.41144737       0.45912612 </v>
    <v>       0.53934079       0.45008355       0.56611133 </v>
    <v>       0.42936084       0.53374615       0.42462678 </v>
    <v>       0.61060812       0.62605759       0.45103666 </v>
   </varray>
  </structure>
  <varray name="forces" >
   <v>      -0.00228170      -0.07879568       0.02609897 </v>
   <v>       0.00763663       0.00437919       0.12378389 </v>
   <v>       0.01006528       0.06949220       0.01056759 </v>
   <v>       0.02524993      -0.10804383      -0.03559902 </v>
   <v>       0.08945343      -0.03869910       0.03600373 </v>
   <v>      -0.00083566       0.01935855      -0.07261474 </v>
   <v>       0.03356307       0.00540825      -0.06194678 </v>
   <v>      -0.09051808       0.02388525      -0.02310673 </v>
   <v>      -0.07494002      -0.09212634       0.06602213 </v>
   <v>      -0.06949025      -0.07094000      -0.11391602 </v>
   <v>      -0.01064764       0.01276367       0.08888843 </v>
   <v>      -0.08227381       0.09191374       0.13141237 </v>
   <v>      -0.02160014       0.08565506      -0.09659577 </v>
   <v>       0.06314035      -0.02691024      -0.02588202 </v>
   <v>       0.11089458      -0.00107675       0.10730234 </v>
   <v>      -0.05993229       0.03803220      -0.12723508 </v>
   <v>       0.07251632       0.06570384      -0.03318332 </v>
  </varray>
  <varray name="stress" >
   <v>      -0.47473992       0.09127116      -0.11256733 </v>
   <v>       0.09127116      -0.29387632      -0.01490511 </v>
   <v>      -0.11256734      -0.01490511      -0.47590857 </v>
  </varray>
  <energy>
   <i name="e_fr_energy">   -103.69303478 </i>
   <i name="e_wo_entrp">   -103.69303478 </i>
   <i name="e_0_energy">   -103.69303478 </i>
  </energy>
  <time name="totalsc">   34.34   35.95</time>
 </calculation>
 <calculation>
  <scstep>
   <time name="dav">    2.10    2.46</time>
   <time name="total">    4.15    5.58</time>
   <energy>
    <i name="alphaZ">      2.15216506 </i>
    <i name="ewald">   2563.10255204 </i>
    <i name="hartreedc">  -3696.44865953 </i>
    <i name="XCdc">    140.66528518 </i>
    <i name="pawpsdc">   3482.07238057 </i>
    <i name="pawaedc">  -3488.38793783 </i>
    <i name="eentropy">     -0.00000000 </i>
    <i name="bandstr">   -513.32770381 </i>
    <i name="atom">   1406.67326350 </i>
    <i name="e_fr_energy">   -103.49865483 </i>
    <i name="e_wo_entrp">   -103.49865483 </i>
    <i name="e_0_energy">   -103.49865483 </i>
   </energy>
  </scstep>
  <scstep>
   <time name="diag">    0.37    0.44</time>
   <time name="diis">    1.56    2.17</time>
   <time name="orth">    0.01    0.01</time>
   <time name="total">    3.82    5.04</time>
   <energy>
    <i name="e_fr_energy">   -103.49871771 </i>
    <i name="e_wo_entrp">   -103.49871771 </i>
    <i name="e_0_energy">   -103.49871771 </i>
   </energy>
  </scstep>
  <scstep>
   <time name="diag">    0.59    0.75</time>
   <time name="diis">    3.86    3.94</time>
   <time name="orth">    0.02    0.05</time>
   <time name="total">    7.17    8.14</time>
   <energy>
    <i name="e_fr_energy">   -103.49871625 </i>
    <i name="e_wo_entrp">   -103.49871625 </i>
    <i name="e_0_energy">   -103.49871625 </i>
   </energy>
  </scstep>
  <scstep>
   <time name="diag">    0.25    0.44</time>
   <time name="diis">    1.61    2.82</time>
   <time name="orth">    0.01    0.02</time>
   <time name="total">    3.49    5.51</time>
   <energy>
    <i name="alphaZ">      2.15216506 </i>
    <i name="ewald">   2563.10255204 </i>
    <i name="hartreedc">  -3696.15066243 </i>
    <i name="XCdc">    140.65536641 </i>
    <i name="pawpsdc">   3475.27263524 </i>
    <i name="pawaedc">  -3481.58438776 </i>
    <i name="eentropy">     -0.00000000 </i>
    <i name="bandstr">   -513.61965796 </i>
    <i name="atom">   1406.67326350 </i>
    <i name="e_fr_energy">   -103.49872590 </i>
    <i name="e_wo_entrp">   -103.49872590 </i>
    <i name="e_0_energy">   -103.49872590 </i>
   </energy>
  </scstep>
  <structure>
   <crystal>
    <varray name="basis" >
     <v>      15.40225029       0.00000000       0.00000000 </v>
     <v>       0.00000000      15.40225029       0.00000000 </v>
     <v>       0.00000000       0.00000000      15.40225029 </v>
    </varray>
    <i name="volume">   3653.86527022 </i>
    <varray name="rec_basis" >
     <v>       0.06492558       0.00000000       0.00000000 </v>
     <v>       0.00000000       0.06492558       0.00000000 </v>
     <v>       0.00000000       0.00000000       0.06492558 </v>
    </varray>
   </crystal>
   <varray name="positions" >
    <v>       0.33636561       0.44140753       0.56666646 </v>
    <v>       0.33583281       0.52805724       0.57361840 </v>
    <v>       0.41574295       0.58081291       0.55586464 </v>
    <v>       0.41450207       0.39007455       0.53988329 </v>
    <v>       0.49365931       0.44426006       0.51179990 </v>
    <v>       0.46934498       0.53685379       0.48367175 </v>
    <v>       0.54724629       0.58670324       0.46409100 </v>
    <v>       0.27768605       0.40403830       0.58035769 </v>
    <v>       0.43501188       0.34762784       0.59370094 </v>
    <v>       0.39545463       0.34524499       0.48761663 </v>
    <v>       0.27629576       0.56215422       0.59132266 </v>
    <v>       0.45785290       0.58451713       0.61365926 </v>
    <v>       0.39943437       0.64794157       0.53852449 </v>
    <v>       0.52843089       0.41141917       0.45897745 </v>
    <v>       0.53950950       0.45001580       0.56602595 </v>
    <v>       0.42928233       0.53385407       0.42449236 </v>
    <v>       0.61066952       0.62612229       0.45096763 </v>
   </varray>
  </structure>
  <varray name="forces" >
   <v>       0.00431289       0.03525517       0.02679564 </v>
   <v>       0.00167682      -0.11048084       0.09722233 </v>
   <v>       0.03653126       0.06730741      -0.05155716 </v>
   <v>       0.05953104      -0.05937760      -0.05168189 </v>
   <v>       0.03615804      -0.06729853       0.05032514 </v>
   <v>      -0.03855529       0.03660201      -0.03529430 </v>
   <v>       0.09468264       0.04618806      -0.06514302 </v>
   <v>      -0.08991800       0.01705881      -0.01896810 </v>
   <v>      -0.06856928      -0.09508378       0.05651467 </v>
   <v>      -0.06119380      -0.06438621      -0.09967381 </v>
   <v>      -0.01710862       0.01644695       0.09239993 </v>
   <v>      -0.06241561       0.09322346       0.12741835 </v>
   <v>      -0.02074975       0.06053613      -0.08306538 </v>
   <v>       0.06703722      -0.02888780      -0.02384177 </v>
   <v>       0.09501277       0.00026670       0.08981618 </v>
   <v>      -0.03944838       0.03093168      -0.09074838 </v>
   <v>       0.00301605       0.02169837      -0.02051840 </v>
  </varray>
  <varray name="stress" >
   <v>      -0.54792312       0.06507625      -0.08583926 </v>
   <v>       0.06507625      -0.41290309      -0.01230616 </v>
   <v>      -0.08583926      -0.01230617      -0.54263867 </v>
  </varray>
  <energy>
   <i name="e_fr_energy">   -103.69577679 </i>
   <i name="e_wo_entrp">   -103.69577679 </i>
   <i name="e_0_energy">   -103.69577679 </i>
  </energy>
  <time name="totalsc">   33.62   45.72</time>
 </calculation>
 <calculation>
  <scstep>
   <time name="dav">    2.07    2.78</time>
   <time name="total">    4.21    5.14</time>
   <energy>
    <i name="alphaZ">      2.15216506 </i>
    <i name="ewald">   2558.80557160 </i>
    <i name="hartreedc">  -3692.45239761 </i>
    <i name="XCdc">    140.60826882 </i>
    <i name="pawpsdc">   3473.93876477 </i>
    <i name="pawaedc">  -3480.25060375 </i>
    <i name="eentropy">     -0.00000000 </i>
    <i name="bandstr">   -512.97720730 </i>
    <i name="atom">   1406.67326350 </i>
    <i name="e_fr_energy">   -103.50217490 </i>
    <i name="e_wo_entrp">   -103.50217490 </i>
    <i name="e_0_energy">   -103.50217490 </i>
   </energy>
  </scstep>
  <scstep>
   <time name="diag">    0.24    0.51</time>
   <time name="diis">    1.49    2.84</time>
   <time name="orth">    0.01    0.01</time>
   <time name="total">    3.22    5.59</time>
   <energy>
    <i name="e_fr_energy">   -103.50228916 </i>
    <i name="e_wo_entrp">   -103.50228916 </i>
    <i name="e_0_energy">   -103.50228916 </i>
   </energy>
  </scstep>
  <scstep>
   <time name="diag">    0.40    0.64</time>
   <time name="diis">    2.17    2.46</time>
   <time name="orth">    0.01    0.01</time>
   <time name="total">    4.55    5.65</time>
   <energy>
    <i name="e_fr_energy">   -103.50229240 </i>
    <i name="e_wo_entrp">   -103.50229240 </i>
    <i name="e_0_energy">   -103.50229240 </i>
   </energy>
  </scstep>
  <scstep>
   <time name="diag">    0.55    0.58</time>
   <time name="diis">    2.23    2.82</time>
   <time name="orth">    0.01    0.02</time>
   <time name="total">    4.95    5.77</time>
   <energy>
    <i name="e_fr_energy">   -103.50231380 </i>
    <i name="e_wo_entrp">   -103.50231380 </i>
    <i name="e_0_energy">   -103.50231380 </i>
   </energy>
  </scstep>
  <scstep>
   <time name="diag">    0.27    0.33</time>
   <time name="diis">    1.16    1.17</time>
   <time name="orth">    0.01    0.01</time>
   <time name="total">    2.85    4.30</time>
   <energy>
    <i name="alphaZ">      2.15216506 </i>
    <i name="ewald">   2558.80557160 </i>
    <i name="hartreedc">  -3692.10740118 </i>
    <i name="XCdc">    140.59720928 </i>
    <i name="pawpsdc">   3464.67825709 </i>
    <i name="pawaedc">  -3470.98583721 </i>
    <i name="eentropy">     -0.00000000 </i>
    <i name="bandstr">   -513.31554485 </i>
    <i name="atom">   1406.67326350 </i>
    <i name="e_fr_energy">   -103.50231671 </i>
    <i name="e_wo_entrp">   -103.50231671 </i>
    <i name="e_0_energy">   -103.50231671 </i>
   </energy>
  </scstep>
  <structure>
   <crystal>
    <varray name="basis" >
     <v>      15.40225029       0.00000000       0.00000000 </v>
     <v>       0.00000000      15.40225029       0.00000000 </v>
     <v>       0.00000000       0.00000000      15.40225029 </v>
    </varray>
    <i name="volume">   3653.86527022 </i>
    <varray name="rec_basis" >
     <v>       0.06492558       0.00000000       0.00000000 </v>
     <v>       0.00000000       0.06492558       0.00000000 </v>
     <v>       0.00000000       0.00000000       0.06492558 </v>
    </varray>
   </crystal>
   <varray name="positions" >
    <v>       0.33634919       0.44141782       0.56670299 </v>
    <v>       0.33587800       0.52794783       0.57382095 </v>
    <v>       0.41573048       0.58092935       0.55589615 </v>
    <v>       0.41450793       0.38988770       0.53989004 </v>
    <v>       0.49373337       0.44417962       0.51167878 </v>
    <v>       0.46932860       0.53688495       0.48351628 </v>
    <v>       0.54731700       0.58675258       0.46385041 </v>
    <v>       0.27746884       0.40411003       0.58019043 </v>
    <v>       0.43491392       0.34763280       0.59396574 </v>
    <v>       0.39538488       0.34493770       0.48765596 </v>
    <v>       0.27630276       0.56214389       0.59151078 </v>
    <v>       0.45762056       0.58470149       0.61389941 </v>
    <v>       0.39941972       0.64806389       0.53837754 </v>
    <v>       0.52830394       0.41135959       0.45866860 </v>
    <v>       0.53982084       0.44988045       0.56581943 </v>
    <v>       0.42914987       0.53405667       0.42427758 </v>
    <v>       0.61073679       0.62621355       0.45083955 </v>
   </varray>
  </structure>
  <varray name="forces" >
   <v>      -0.00094870      -0.09306310       0.00611775 </v>
   <v>      -0.00665237       0.03429074       0.06999193 </v>
   <v>       0.04370390       0.02401236      -0.06517267 </v>
   <v>       0.04877558      -0.01651040      -0.04277554 </v>
   <v>       0.00797558      -0.06410142       0.04422306 </v>
   <v>      -0.03544505       0.04345230      -0.00278654 </v>
   <v>       0.04932074       0.02251488      -0.03834194 </v>
   <v>      -0.04462280       0.03517838      -0.01886981 </v>
   <v>      -0.06499661      -0.08389205       0.02656952 </v>
   <v>      -0.04642506      -0.03922658      -0.06829756 </v>
   <v>       0.01059024      -0.00815121       0.08622161 </v>
   <v>      -0.04882196       0.09278972       0.08649786 </v>
   <v>      -0.02889519       0.03289266      -0.06771346 </v>
   <v>       0.06264277      -0.02291296      -0.00864613 </v>
   <v>       0.06034145       0.00106506       0.05755443 </v>
   <v>      -0.01276475       0.01997960      -0.03950395 </v>
   <v>       0.00622222       0.02168205      -0.02506855 </v>
  </varray>
  <varray name="stress" >
   <v>      -0.68086893       0.04738372      -0.06468706 </v>
   <v>       0.04738372      -0.49589216      -0.00001056 </v>
   <v>      -0.06468706      -0.00001056      -0.67311684 </v>
  </varray>
  <energy>
   <i name="e_fr_energy">   -103.69939091 </i>
   <i name="e_wo_entrp">   -103.69939091 </i>
   <i name="e_0_energy">   -103.69939091 </i>
  </energy>
  <time name="totalsc">   37.01   48.57</time>
 </calculation>
 <calculation>
  <scstep>
   <time name="dav">    2.57    2.63</time>
   <time name="total">    4.52    4.74</time>
   <energy>
    <i name="alphaZ">      2.15216506 </i>
    <i name="ewald">   2557.36991376 </i>
    <i name="hartreedc">  -3690.89376777 </i>
    <i name="XCdc">    140.58159475 </i>
    <i name="pawpsdc">   3463.68276997 </i>
    <i name="pawaedc">  -3469.99028139 </i>
    <i name="eentropy">     -0.00000000 </i>
    <i name="bandstr">   -513.07879533 </i>
    <i name="atom">   1406.67326350 </i>
    <i name="e_fr_energy">   -103.50313745 </i>
    <i name="e_wo_entrp">   -103.50313745 </i>
    <i name="e_0_energy">   -103.50313745 </i>
   </energy>
  </scstep>
  <scstep>
   <time name="diag">    0.54    0.55</time>
   <time name="diis">    3.32    3.45</time>
   <time name="orth">    0.02    0.03</time>
   <time name="total">    5.96    6.37</time>
   <energy>
    <i name="e_fr_energy">   -103.50315631 </i>
    <i name="e_wo_entrp">   -103.50315631 </i>
    <i name="e_0_energy">   -103.50315631 </i>
   </energy>
  </scstep>
  <scstep>
   <time name="diag">    0.36    0.37</time>
   <time name="diis">    2.69    2.89</time>
   <time name="orth">    0.03    0.03</time>
   <time name="total">    5.68    5.91</time>
   <energy>
    <i name="e_fr_energy">   -103.50315914 </i>
    <i name="e_wo_entrp">   -103.50315914 </i>
    <i name="e_0_energy">   -103.50315914 </i>
   </energy>
  </scstep>
  <scstep>
   <time name="diag">    0.23    0.23</time>
   <time name="diis">    1.87    2.06</time>
   <time name="orth">    0.01    0.01</time>
   <time name="total">    3.56    4.34</time>
   <energy>
    <i name="alphaZ">      2.15216506 </i>
    <i name="ewald">   2557.36991376 </i>
    <i name="hartreedc">  -3690.72054651 </i>
    <i name="XCdc">    140.57554522 </i>
    <i name="pawpsdc">   3460.71962081 </i>
    <i name="pawaedc">  -3467.02496698 </i>
    <i name="eentropy">     -0.00000000 </i>
    <i name="bandstr">   -513.24815777 </i>
    <i name="atom">   1406.67326350 </i>
    <i name="e_fr_energy">   -103.50316291 </i>
    <i name="e_wo_entrp">   -103.50316291 </i>
    <i name="e_0_energy">   -103.50316291 </i>
   </energy>
  </scstep>
  <structure>
   <crystal>
    <varray name="basis" >
     <v>      15.40225029       0.00000000       0.00000000 </v>
     <v>       0.00000000      15.40225029       0.00000000 </v>
     <v>       0.00000000       0.00000000      15.40225029 </v>
    </varray>
    <i name="volume">   3653.86527022 </i>
    <varray name="rec_basis" >
     <v>       0.06492558       0.00000000       0.00000000 </v>
     <v>       0.00000000       0.06492558       0.00000000 </v>
     <v>       0.00000000       0.00000000       0.06492558 </v>
    </varray>
   </crystal>
   <varray name="positions" >
    <v>       0.33633830       0.44137851       0.56670645 </v>
    <v>       0.33588876       0.52795170       0.57388801 </v>
    <v>       0.41573541       0.58095562       0.55588755 </v>
    <v>       0.41451542       0.38984310       0.53989813 </v>
    <v>       0.49373253       0.44413683       0.51161340 </v>
    <v>       0.46931282       0.53690974       0.48347011 </v>
    <v>       0.54732009       0.58676110       0.46375856 </v>
    <v>       0.27739640       0.40414943       0.58011298 </v>
    <v>       0.43488235       0.34765898       0.59407456 </v>
    <v>       0.39536855       0.34480768       0.48771051 </v>
    <v>       0.27631742       0.56212775       0.59158441 </v>
    <v>       0.45753227       0.58477454       0.61398312 </v>
    <v>       0.39941185       0.64809699       0.53832971 </v>
    <v>       0.52822393       0.41133598       0.45852232 </v>
    <v>       0.53994099       0.44981374       0.56568253 </v>
    <v>       0.42910523       0.53414527       0.42421609 </v>
    <v>       0.61076452       0.62625052       0.45077788 </v>
   </varray>
  </structure>
  <varray name="forces" >
   <v>       0.00347033      -0.04628327       0.00388973 </v>
   <v>       0.00138618      -0.00201332       0.05192669 </v>
   <v>       0.03882903       0.02495889      -0.05386987 </v>
   <v>       0.03914026      -0.02217097      -0.03881894 </v>
   <v>       0.01027010      -0.05223956       0.03774107 </v>
   <v>      -0.03202021       0.03137941       0.00146100 </v>
   <v>       0.08749405       0.04752984      -0.03851672 </v>
   <v>      -0.04255410       0.02901771      -0.01533677 </v>
   <v>      -0.06253147      -0.07890653       0.01559182 </v>
   <v>      -0.04076295      -0.03118467      -0.05902794 </v>
   <v>       0.00621557      -0.00488409       0.08792800 </v>
   <v>      -0.04433821       0.09145706       0.06996266 </v>
   <v>      -0.02935586       0.02410518      -0.06400805 </v>
   <v>       0.05947659      -0.02096461      -0.00412565 </v>
   <v>       0.05109603       0.00106659       0.05075302 </v>
   <v>      -0.00722601       0.01614098      -0.02708315 </v>
   <v>      -0.03858933      -0.00700864      -0.01846690 </v>
  </varray>
  <varray name="stress" >
   <v>      -0.71943433       0.03291578      -0.05860686 </v>
   <v>       0.03291578      -0.55248371       0.00646573 </v>
   <v>      -0.05860687       0.00646573      -0.70701284 </v>
  </varray>
  <energy>
   <i name="e_fr_energy">   -103.70022484 </i>
   <i name="e_wo_entrp">   -103.70022484 </i>
   <i name="e_0_energy">   -103.70022484 </i>
  </energy>
  <time name="totalsc">   42.83   49.24</time>
 </calculation>
 <calculation>
  <scstep>
   <time name="dav">    1.54    2.88</time>
   <time name="total">    3.09    5.24</time>
   <energy>
    <i name="alphaZ">      2.15216506 </i>
    <i name="ewald">   2555.46752292 </i>
    <i name="hartreedc">  -3689.04633074 </i>
    <i name="XCdc">    140.55600485 </i>
    <i name="pawpsdc">   3460.09551511 </i>
    <i name="pawaedc">  -3466.40095581 </i>
    <i name="eentropy">     -0.00000000 </i>
    <i name="bandstr">   -513.00125696 </i>
    <i name="atom">   1406.67326350 </i>
    <i name="e_fr_energy">   -103.50407207 </i>
    <i name="e_wo_entrp">   -103.50407207 </i>
    <i name="e_0_energy">   -103.50407207 </i>
   </energy>
  </scstep>
  <scstep>
   <time name="diag">    0.30    0.60</time>
   <time name="diis">    1.79    2.31</time>
   <time name="orth">    0.01    0.01</time>
   <time name="total">    3.71    5.02</time>
   <energy>
    <i name="e_fr_energy">   -103.50410469 </i>
    <i name="e_wo_entrp">   -103.50410469 </i>
    <i name="e_0_energy">   -103.50410469 </i>
   </energy>
  </scstep>
  <scstep>
   <time name="diag">    0.44    0.50</time>
   <time name="diis">    2.29    2.39</time>
   <time name="orth">    0.02    0.04</time>
   <time name="total">    4.21    5.52</time>
   <energy>
    <i name="e_fr_energy">   -103.50410584 </i>
    <i name="e_wo_entrp">   -103.50410584 </i>
    <i name="e_0_energy">   -103.50410584 </i>
   </energy>
  </scstep>
  <scstep>
   <time name="diag">    0.51    0.75</time>
   <time name="diis">    1.54    1.88</time>
   <time name="orth">    0.02    0.03</time>
   <time name="total">    3.98    5.18</time>
   <energy>
    <i name="alphaZ">      2.15216506 </i>
    <i name="ewald">   2555.46752292 </i>
    <i name="hartreedc">  -3688.89981519 </i>
    <i name="XCdc">    140.55279020 </i>
    <i name="pawpsdc">   3457.26579118 </i>
    <i name="pawaedc">  -3463.57006044 </i>
    <i name="eentropy">     -0.00000000 </i>
    <i name="bandstr">   -513.14576948 </i>
    <i name="atom">   1406.67326350 </i>
    <i name="e_fr_energy">   -103.50411225 </i>
    <i name="e_wo_entrp">   -103.50411225 </i>
    <i name="e_0_energy">   -103.50411225 </i>
   </energy>
  </scstep>
  <structure>
   <crystal>
    <varray name="basis" >
     <v>      15.40225029       0.00000000       0.00000000 </v>
     <v>       0.00000000      15.40225029       0.00000000 </v>
     <v>       0.00000000       0.00000000      15.40225029 </v>
    </varray>
    <i name="volume">   3653.86527022 </i>
    <varray name="rec_basis" >
     <v>       0.06492558       0.00000000       0.00000000 </v>
     <v>       0.00000000       0.06492558       0.00000000 </v>
     <v>       0.00000000       0.00000000       0.06492558 </v>
    </varray>
   </crystal>
   <varray name="positions" >
    <v>       0.33632588       0.44132297       0.56670799 </v>
    <v>       0.33589859       0.52794263       0.57398307 </v>
    <v>       0.41575722       0.58099890       0.55586519 </v>
    <v>       0.41454520       0.38977414       0.53989817 </v>
    <v>       0.49373713       0.44406673       0.51153298 </v>
    <v>       0.46927349       0.53694972       0.48340331 </v>
    <v>       0.54738315       0.58680539       0.46363216 </v>
    <v>       0.27728665       0.40419972       0.58001237 </v>
    <v>       0.43483837       0.34769734       0.59422656 </v>
    <v>       0.39533897       0.34462909       0.48777926 </v>
    <v>       0.27632267       0.56211758       0.59168943 </v>
    <v>       0.45742001       0.58487363       0.61411135 </v>
    <v>       0.39939626       0.64815172       0.53825767 </v>
    <v>       0.52811065       0.41130057       0.45831599 </v>
    <v>       0.54011194       0.44972350       0.56550908 </v>
    <v>       0.42903364       0.53426466       0.42411998 </v>
    <v>       0.61076010       0.62627582       0.45069902 </v>
   </varray>
  </structure>
  <varray name="forces" >
   <v>       0.00957977       0.00416947       0.00043909 </v>
   <v>       0.01471700      -0.02977821       0.02675467 </v>
   <v>       0.02352754       0.02285802      -0.02907124 </v>
   <v>       0.01370962      -0.02881234      -0.02606525 </v>
   <v>       0.01357795      -0.02510778       0.02179827 </v>
   <v>       0.00457191       0.02186053       0.00336528 </v>
   <v>      -0.06022362      -0.04165524      -0.00046750 </v>
   <v>      -0.03292307       0.02288392      -0.01207506 </v>
   <v>      -0.05866711      -0.07327765      -0.00044937 </v>
   <v>      -0.03089798      -0.02008745      -0.04627694 </v>
   <v>       0.00913348      -0.00692380       0.08755934 </v>
   <v>      -0.04153797       0.08989395       0.04001621 </v>
   <v>      -0.02891152       0.00947686      -0.05758760 </v>
   <v>       0.05576072      -0.01703419       0.00440781 </v>
   <v>       0.03553598       0.00077374       0.03824643 </v>
   <v>       0.00302816       0.01189192      -0.00753942 </v>
   <v>       0.07001914       0.05886824      -0.04305470 </v>
  </varray>
  <varray name="stress" >
   <v>      -0.72898775       0.05069053      -0.06546128 </v>
   <v>       0.05069054      -0.61674006       0.00948876 </v>
   <v>      -0.06546128       0.00948876      -0.75894185 </v>
  </varray>
  <energy>
   <i name="e_fr_energy">   -103.70117544 </i>
   <i name="e_wo_entrp">   -103.70117544 </i>
   <i name="e_0_energy">   -103.70117544 </i>
  </energy>
  <time name="totalsc">   32.20   43.21</time>
 </calculation>
 <calculation>
  <scstep>
   <time name="dav">    1.61    1.73</time>
   <time name="total">    3.64    4.44</time>
   <energy>
    <i name="alphaZ">      2.15216506 </i>
    <i name="ewald">   2554.51854052 </i>
    <i name="hartreedc">  -3688.17817647 </i>
    <i name="XCdc">    140.54157692 </i>
    <i name="pawpsdc">   3456.48452006 </i>
    <i name="pawaedc">  -3462.78897677 </i>
    <i name="eentropy">     -0.00000000 </i>
    <i name="bandstr">   -512.90721837 </i>
    <i name="atom">   1406.67326350 </i>
    <i name="e_fr_energy">   -103.50430557 </i>
    <i name="e_wo_entrp">   -103.50430557 </i>
    <i name="e_0_energy">   -103.50430557 </i>
   </energy>
  </scstep>
  <scstep>
   <time name="diag">    0.21    0.41</time>
   <time name="diis">    1.40    2.80</time>
   <time name="orth">    0.02    0.03</time>
   <time name="total">    3.29    5.44</time>
   <energy>
    <i name="e_fr_energy">   -103.50432041 </i>
    <i name="e_wo_entrp">   -103.50432041 </i>
    <i name="e_0_energy">   -103.50432041 </i>
   </energy>
  </scstep>
  <scstep>
   <time name="diag">    0.30    0.42</time>
   <time name="diis">    1.77    2.34</time>
   <time name="orth">    0.03    0.03</time>
   <time name="total">    3.40    4.12</time>
   <energy>
    <i name="alphaZ">      2.15216506 </i>
    <i name="ewald">   2554.51854052 </i>
    <i name="hartreedc">  -3688.03626970 </i>
    <i name="XCdc">    140.53520776 </i>
    <i name="pawpsdc">   3454.12119697 </i>
    <i name="pawaedc">  -3460.42351390 </i>
    <i name="eentropy">     -0.00000000 </i>
    <i name="bandstr">   -513.04490923 </i>
    <i name="atom">   1406.67326350 </i>
    <i name="e_fr_energy">   -103.50431903 </i>
    <i name="e_wo_entrp">   -103.50431903 </i>
    <i name="e_0_energy">   -103.50431903 </i>
   </energy>
  </scstep>
  <structure>
   <crystal>
    <varray name="basis" >
     <v>      15.40225029       0.00000000       0.00000000 </v>
     <v>       0.00000000      15.40225029       0.00000000 </v>
     <v>       0.00000000       0.00000000      15.40225029 </v>
    </varray>
    <i name="volume">   3653.86527022 </i>
[...]
    <v>       0.27673305       0.40499540       0.57991934 </v>
    <v>       0.43445069       0.34890857       0.59471968 </v>
    <v>       0.39398059       0.34221601       0.48892352 </v>
    <v>       0.27770675       0.56180075       0.59583749 </v>
    <v>       0.45712148       0.58857033       0.61310550 </v>
    <v>       0.39748151       0.64772879       0.53533464 </v>
    <v>       0.52366456       0.41100996       0.45227305 </v>
    <v>       0.54217242       0.44666374       0.55933766 </v>
    <v>       0.42735188       0.53562909       0.42353849 </v>
    <v>       0.60928229       0.62641515       0.44648187 </v>
   </varray>
  </structure>
  <varray name="forces" >
   <v>       0.00394940       0.00041205       0.00772109 </v>
   <v>       0.00637213      -0.00052814       0.01130813 </v>
   <v>      -0.00221540       0.00506352      -0.00714394 </v>
   <v>      -0.00702824      -0.00446241      -0.01712620 </v>
   <v>       0.00560110       0.00110532       0.01514488 </v>
   <v>      -0.00190576      -0.00519108      -0.00030088 </v>
   <v>       0.01382219       0.00807793      -0.01047193 </v>
   <v>       0.00593806       0.00153479       0.02180493 </v>
   <v>      -0.01678611      -0.04360389      -0.03350788 </v>
   <v>      -0.01940263       0.02450766      -0.04699296 </v>
   <v>       0.01144930      -0.00191717       0.03041076 </v>
   <v>       0.00078014       0.02814570      -0.01025316 </v>
   <v>      -0.01342259      -0.00181540      -0.02353220 </v>
   <v>       0.03857266      -0.00059252       0.02687304 </v>
   <v>      -0.01207731       0.01237440       0.04259054 </v>
   <v>       0.00242908      -0.01639693       0.00019315 </v>
   <v>      -0.01607603      -0.00671384      -0.00671736 </v>
  </varray>
  <varray name="stress" >
   <v>      -0.85944240       0.00930662      -0.00902627 </v>
   <v>       0.00930661      -0.81372803       0.01251075 </v>
   <v>      -0.00902627       0.01251075      -0.84267227 </v>
  </varray>
  <energy>
   <i name="e_fr_energy">   -103.70305985 </i>
   <i name="e_wo_entrp">   -103.70305985 </i>
   <i name="e_0_energy">   -103.70305985 </i>
  </energy>
  <time name="totalsc">   20.86   28.47</time>
 </calculation>
 <calculation>
  <scstep>
   <time name="dav">    1.29    1.34</time>
   <time name="total">    3.05    3.14</time>
   <energy>
    <i name="alphaZ">      2.15216506 </i>
    <i name="ewald">   2546.61207252 </i>
    <i name="hartreedc">  -3680.31503938 </i>
    <i name="XCdc">    140.48944374 </i>
    <i name="pawpsdc">   3445.57285632 </i>
    <i name="pawaedc">  -3451.87188765 </i>
    <i name="eentropy">     -0.00000000 </i>
    <i name="bandstr">   -512.82021185 </i>
    <i name="atom">   1406.67326350 </i>
    <i name="e_fr_energy">   -103.50733774 </i>
    <i name="e_wo_entrp">   -103.50733774 </i>
    <i name="e_0_energy">   -103.50733774 </i>
   </energy>
  </scstep>
  <scstep>
   <time name="diag">    0.31    0.31</time>
   <time name="diis">    1.96    2.17</time>
   <time name="orth">    0.02    0.02</time>
   <time name="total">    4.59    5.16</time>
   <energy>
    <i name="e_fr_energy">   -103.50736152 </i>
    <i name="e_wo_entrp">   -103.50736152 </i>
    <i name="e_0_energy">   -103.50736152 </i>
   </energy>
  </scstep>
  <scstep>
   <time name="diag">    0.15    0.16</time>
   <time name="diis">    0.90    1.02</time>
   <time name="orth">    0.01    0.01</time>
   <time name="total">    2.50    2.74</time>
   <energy>
    <i name="alphaZ">      2.15216506 </i>
    <i name="ewald">   2546.61207252 </i>
    <i name="hartreedc">  -3680.33705083 </i>
    <i name="XCdc">    140.49071638 </i>
    <i name="pawpsdc">   3445.85470631 </i>
    <i name="pawaedc">  -3452.15409969 </i>
    <i name="eentropy">     -0.00000000 </i>
    <i name="bandstr">   -512.79913937 </i>
    <i name="atom">   1406.67326350 </i>
    <i name="e_fr_energy">   -103.50736611 </i>
    <i name="e_wo_entrp">   -103.50736611 </i>
    <i name="e_0_energy">   -103.50736611 </i>
   </energy>
  </scstep>
  <structure>
   <crystal>
    <varray name="basis" >
     <v>      15.40225029       0.00000000       0.00000000 </v>
     <v>       0.00000000      15.40225029       0.00000000 </v>
     <v>       0.00000000       0.00000000      15.40225029 </v>
    </varray>
    <i name="volume">   3653.86527022 </i>
    <varray name="rec_basis" >
     <v>       0.06492558       0.00000000       0.00000000 </v>
     <v>       0.00000000       0.06492558       0.00000000 </v>
     <v>       0.00000000       0.00000000       0.06492558 </v>
    </varray>
   </crystal>
   <varray name="positions" >
    <v>       0.33618054       0.44145198       0.56638740 </v>
    <v>       0.33654286       0.52792306       0.57516595 </v>
    <v>       0.41554948       0.58152994       0.55500647 </v>
    <v>       0.41383759       0.38926583       0.53904936 </v>
    <v>       0.49262285       0.44309512       0.50797196 </v>
    <v>       0.46841228       0.53700982       0.48228926 </v>
    <v>       0.54636779       0.58670331       0.46124145 </v>
    <v>       0.27675458       0.40500102       0.58000545 </v>
    <v>       0.43442761       0.34883344       0.59461154 </v>
    <v>       0.39391446       0.34227679       0.48882141 </v>
    <v>       0.27775459       0.56179737       0.59595546 </v>
    <v>       0.45713633       0.58865990       0.61304105 </v>
    <v>       0.39743051       0.64771606       0.53524607 </v>
    <v>       0.52366623       0.41100583       0.45225582 </v>
    <v>       0.54214187       0.44665689       0.55932723 </v>
    <v>       0.42731516       0.53560037       0.42351132 </v>
    <v>       0.60923092       0.62640094       0.44639648 </v>
   </varray>
  </structure>
  <varray name="forces" >
   <v>       0.00413852      -0.00022361       0.00849423 </v>
   <v>       0.00609743      -0.00063852       0.01277395 </v>
   <v>      -0.00263334       0.00518782      -0.00766661 </v>
   <v>      -0.00728265      -0.00442330      -0.01819733 </v>
   <v>       0.00565786       0.00147700       0.01495124 </v>
   <v>       0.00273615      -0.00224958      -0.00088736 </v>
   <v>      -0.02315688      -0.01527857      -0.00261832 </v>
   <v>       0.00605259       0.00143564       0.02177662 </v>
   <v>      -0.01675142      -0.04362839      -0.03301314 </v>
   <v>      -0.01906773       0.02452388      -0.04636268 </v>
   <v>       0.01111897      -0.00191266       0.02981502 </v>
   <v>       0.00073698       0.02723638      -0.00997482 </v>
   <v>      -0.01307753      -0.00175564      -0.02304300 </v>
   <v>       0.03838751      -0.00065767       0.02699799 </v>
   <v>      -0.01238796       0.01269375       0.04239167 </v>
   <v>       0.00247254      -0.01627128       0.00014618 </v>
   <v>       0.01695896       0.01448478      -0.01558364 </v>
  </varray>
  <varray name="stress" >
   <v>      -0.84546495       0.01707388      -0.01114079 </v>
   <v>       0.01707388      -0.80803704       0.01013749 </v>
   <v>      -0.01114079       0.01013749      -0.84154088 </v>
  </varray>
  <energy>
   <i name="e_fr_energy">   -103.70353089 </i>
   <i name="e_wo_entrp">   -103.70353089 </i>
   <i name="e_0_energy">   -103.70353089 </i>
  </energy>
  <time name="totalsc">   20.82   25.72</time>
 </calculation>
 <calculation>
  <scstep>
   <time name="dav">    1.32    1.93</time>
   <time name="total">    2.74    4.00</time>
   <energy>
    <i name="alphaZ">      2.15216506 </i>
    <i name="ewald">   2546.56582132 </i>
    <i name="hartreedc">  -3680.31199799 </i>
    <i name="XCdc">    140.49019017 </i>
    <i name="pawpsdc">   3446.00828391 </i>
    <i name="pawaedc">  -3452.30776075 </i>
    <i name="eentropy">     -0.00000000 </i>
    <i name="bandstr">   -512.77709052 </i>
    <i name="atom">   1406.67326350 </i>
    <i name="e_fr_energy">   -103.50712530 </i>
    <i name="e_wo_entrp">   -103.50712530 </i>
    <i name="e_0_energy">   -103.50712530 </i>
   </energy>
  </scstep>
  <scstep>
   <time name="diag">    0.26    0.34</time>
   <time name="diis">    1.46    1.87</time>
   <time name="orth">    0.02    0.02</time>
   <time name="total">    3.01    3.68</time>
   <energy>
    <i name="alphaZ">      2.15216506 </i>
    <i name="ewald">   2546.56582132 </i>
    <i name="hartreedc">  -3680.30487059 </i>
    <i name="XCdc">    140.48967519 </i>
    <i name="pawpsdc">   3446.05058667 </i>
    <i name="pawaedc">  -3452.34997711 </i>
    <i name="eentropy">     -0.00000000 </i>
    <i name="bandstr">   -512.78379451 </i>
    <i name="atom">   1406.67326350 </i>
    <i name="e_fr_energy">   -103.50713046 </i>
    <i name="e_wo_entrp">   -103.50713046 </i>
    <i name="e_0_energy">   -103.50713046 </i>
   </energy>
  </scstep>
  <structure>
   <crystal>
    <varray name="basis" >
     <v>      15.40225029       0.00000000       0.00000000 </v>
     <v>       0.00000000      15.40225029       0.00000000 </v>
     <v>       0.00000000       0.00000000      15.40225029 </v>
    </varray>
    <i name="volume">   3653.86527022 </i>
    <varray name="rec_basis" >
     <v>       0.06492558       0.00000000       0.00000000 </v>
     <v>       0.00000000       0.06492558       0.00000000 </v>
     <v>       0.00000000       0.00000000       0.06492558 </v>
    </varray>
   </crystal>
   <varray name="positions" >
    <v>       0.33617506       0.44145046       0.56637209 </v>
    <v>       0.33653065       0.52792210       0.57514536 </v>
    <v>       0.41555244       0.58152312       0.55502659 </v>
    <v>       0.41384996       0.38926800       0.53907721 </v>
    <v>       0.49263081       0.44309893       0.50798463 </v>
    <v>       0.46842483       0.53701656       0.48230707 </v>
    <v>       0.54638019       0.58670620       0.46127590 </v>
    <v>       0.27674356       0.40499800       0.57996181 </v>
    <v>       0.43443921       0.34887122       0.59466663 </v>
    <v>       0.39394811       0.34224598       0.48887345 </v>
    <v>       0.27772999       0.56179916       0.59589541 </v>
    <v>       0.45712885       0.58861400       0.61307402 </v>
    <v>       0.39745657       0.64772263       0.53529126 </v>
    <v>       0.52366563       0.41100784       0.45226489 </v>
    <v>       0.54215739       0.44666068       0.55933313 </v>
    <v>       0.42733432       0.53561481       0.42352598 </v>
    <v>       0.60925896       0.62640961       0.44643963 </v>
   </varray>
  </structure>
  <varray name="forces" >
   <v>       0.00464354       0.00102263       0.00885756 </v>
   <v>       0.00791499       0.00062295       0.01175084 </v>
   <v>       0.00010935       0.00543709      -0.00821492 </v>
   <v>      -0.00676291      -0.00490245      -0.01583185 </v>
   <v>       0.00614417       0.00221768       0.01557970 </v>
   <v>      -0.00022905      -0.00429691      -0.00199079 </v>
   <v>      -0.00415637      -0.00315324      -0.00701320 </v>
   <v>       0.00650089       0.00203786       0.02306689 </v>
   <v>      -0.01657353      -0.04351206      -0.03397400 </v>
   <v>      -0.01968575       0.02421859      -0.04720778 </v>
   <v>       0.01230567      -0.00177924       0.03171724 </v>
   <v>       0.00116326       0.02850842      -0.01041429 </v>
   <v>      -0.01334985      -0.00116627      -0.02326978 </v>
   <v>       0.03954179      -0.00084464       0.02729866 </v>
   <v>      -0.01282584       0.01273026       0.04295011 </v>
   <v>       0.00204176      -0.01656189      -0.00013600 </v>
   <v>      -0.00678212      -0.00057877      -0.01316839 </v>
  </varray>
  <varray name="stress" >
   <v>      -0.85796265       0.01356184      -0.01236673 </v>
   <v>       0.01356184      -0.81362803       0.01191104 </v>
   <v>      -0.01236673       0.01191104      -0.84362648 </v>
  </varray>
  <energy>
   <i name="e_fr_energy">   -103.70329446 </i>
   <i name="e_wo_entrp">   -103.70329446 </i>
   <i name="e_0_energy">   -103.70329446 </i>
  </energy>
  <time name="totalsc">   18.36   22.19</time>
 </calculation>
 <calculation>
  <scstep>
   <time name="dav">    2.56    2.60</time>
   <time name="total">    5.23    5.57</time>
   <energy>
    <i name="alphaZ">      2.15216506 </i>
    <i name="ewald">   2546.55773301 </i>
    <i name="hartreedc">  -3680.29455227 </i>
    <i name="XCdc">    140.48911033 </i>
    <i name="pawpsdc">   3446.01926019 </i>
    <i name="pawaedc">  -3452.31853183 </i>
    <i name="eentropy">     -0.00000000 </i>
    <i name="bandstr">   -512.78570364 </i>
    <i name="atom">   1406.67326350 </i>
    <i name="e_fr_energy">   -103.50725565 </i>
    <i name="e_wo_entrp">   -103.50725565 </i>
    <i name="e_0_energy">   -103.50725565 </i>
   </energy>
  </scstep>
  <scstep>
   <time name="diag">    0.25    0.47</time>
   <time name="diis">    1.00    1.04</time>
   <time name="orth">    0.03    0.03</time>
   <time name="total">    2.67    3.53</time>
   <energy>
    <i name="alphaZ">      2.15216506 </i>
    <i name="ewald">   2546.55773301 </i>
    <i name="hartreedc">  -3680.29172947 </i>
    <i name="XCdc">    140.48892796 </i>
    <i name="pawpsdc">   3445.92962797 </i>
    <i name="pawaedc">  -3452.22882393 </i>
    <i name="eentropy">     -0.00000000 </i>
    <i name="bandstr">   -512.78842192 </i>
    <i name="atom">   1406.67326350 </i>
    <i name="e_fr_energy">   -103.50725781 </i>
    <i name="e_wo_entrp">   -103.50725781 </i>
    <i name="e_0_energy">   -103.50725781 </i>
   </energy>
  </scstep>
  <structure>
   <crystal>
    <varray name="basis" >
     <v>      15.40225029       0.00000000       0.00000000 </v>
     <v>       0.00000000      15.40225029       0.00000000 </v>
     <v>       0.00000000       0.00000000      15.40225029 </v>
    </varray>
    <i name="volume">   3653.86527022 </i>
    <varray name="rec_basis" >
     <v>       0.06492558       0.00000000       0.00000000 </v>
     <v>       0.00000000       0.06492558       0.00000000 </v>
     <v>       0.00000000       0.00000000       0.06492558 </v>
    </varray>
   </crystal>
   <varray name="positions" >
    <v>       0.33617811       0.44145128       0.56638031 </v>
    <v>       0.33653716       0.52792260       0.57515630 </v>
    <v>       0.41555118       0.58152663       0.55501577 </v>
    <v>       0.41384350       0.38926634       0.53906289 </v>
    <v>       0.49262637       0.44309757       0.50797786 </v>
    <v>       0.46841833       0.53701345       0.48229676 </v>
    <v>       0.54636783       0.58670101       0.46125866 </v>
    <v>       0.27674934       0.40499957       0.57998484 </v>
    <v>       0.43443325       0.34885153       0.59463838 </v>
    <v>       0.39393079       0.34226169       0.48884693 </v>
    <v>       0.27774262       0.56179839       0.59592663 </v>
    <v>       0.45713295       0.58863723       0.61305729 </v>
    <v>       0.39744341       0.64771966       0.53526842 </v>
    <v>       0.52366650       0.41100661       0.45226068 </v>
    <v>       0.54214914       0.44665919       0.55933081 </v>
    <v>       0.42732489       0.53560719       0.42351933 </v>
    <v>       0.60924932       0.62640853       0.44641485 </v>
   </varray>
  </structure>
  <varray name="forces" >
   <v>       0.00367036       0.00014341       0.00769920 </v>
   <v>       0.00623242      -0.00013290       0.01110243 </v>
   <v>      -0.00167337       0.00487999      -0.00696662 </v>
   <v>      -0.00670312      -0.00382254      -0.01649882 </v>
   <v>       0.00656032       0.00109114       0.01622206 </v>
   <v>       0.00016187      -0.00461185       0.00115048 </v>
   <v>       0.00940955       0.00505919      -0.00817620 </v>
   <v>       0.00601873       0.00166028       0.02171400 </v>
   <v>      -0.01680825      -0.04375454      -0.03387148 </v>
   <v>      -0.01967965       0.02436316      -0.04739589 </v>
   <v>       0.01151100      -0.00205561       0.02990392 </v>
   <v>       0.00056158       0.02775226      -0.01102744 </v>
   <v>      -0.01349190      -0.00179882      -0.02370365 </v>
   <v>       0.03849782      -0.00066824       0.02676825 </v>
   <v>      -0.01317593       0.01264895       0.04169882 </v>
   <v>       0.00098452      -0.01657910      -0.00170017 </v>
   <v>      -0.01207594      -0.00417478      -0.00691889 </v>
  </varray>
  <varray name="stress" >
   <v>      -0.85760344       0.01081271      -0.00934809 </v>
   <v>       0.01081272      -0.81319459       0.01196789 </v>
   <v>      -0.00934809       0.01196789      -0.84306014 </v>
  </varray>
  <energy>
   <i name="e_fr_energy">   -103.70342062 </i>
   <i name="e_wo_entrp">   -103.70342062 </i>
   <i name="e_0_energy">   -103.70342062 </i>
  </energy>
  <time name="totalsc">   14.04   18.20</time>
  <eigenvalues>
   <array>
    <dimension dim="1">band</dimension>
    <dimension dim="2">kpoint</dimension>
    <dimension dim="3">spin</dimension>
    <field>eigene</field>
    <field>occ</field>
    <set>
     <set comment="spin 1">
      <set comment="kpoint 1">
       <r>  -22.2712    1.0000 </r>
       <r>  -21.1475    1.0000 </r>
       <r>  -19.1120    1.0000 </r>
       <r>  -18.6957    1.0000 </r>
       <r>  -15.9851    1.0000 </r>
       <r>  -15.4673    1.0000 </r>
       <r>  -13.0285    1.0000 </r>
       <r>  -12.9427    1.0000 </r>
       <r>  -11.9083    1.0000 </r>
       <r>  -10.9372    1.0000 </r>
       <r>  -10.5498    1.0000 </r>
       <r>  -10.3589    1.0000 </r>
       <r>   -9.8524    1.0000 </r>
       <r>   -9.5816    1.0000 </r>
       <r>   -8.7183    1.0000 </r>
       <r>   -8.4181    1.0000 </r>
       <r>   -8.3195    1.0000 </r>
       <r>   -7.9319    1.0000 </r>
       <r>   -7.6028    1.0000 </r>
       <r>   -7.4568    1.0000 </r>
       <r>   -6.1085    1.0000 </r>
       <r>   -0.8896    0.0000 </r>
       <r>   -0.6583    0.0000 </r>
       <r>   -0.1652    0.0000 </r>
       <r>   -0.0907    0.0000 </r>
       <r>   -0.0233    0.0000 </r>
       <r>    0.0380    0.0000 </r>
       <r>    0.1652    0.0000 </r>
       <r>    0.3729    0.0000 </r>
       <r>    0.4631    0.0000 </r>
      </set>
     </set>
    </set>
   </array>
  </eigenvalues>
  <separator name="orbital magnetization" >
   <v name="MAGDIPOLOUT">      0.00000000      0.00000000      0.00000000</v>
  </separator>
 </calculation>
 <structure name="finalpos" >
  <crystal>
   <varray name="basis" >
    <v>      15.40225029       0.00000000       0.00000000 </v>
    <v>       0.00000000      15.40225029       0.00000000 </v>
    <v>       0.00000000       0.00000000      15.40225029 </v>
   </varray>
   <i name="volume">   3653.86527022 </i>
   <varray name="rec_basis" >
    <v>       0.06492558       0.00000000       0.00000000 </v>
    <v>       0.00000000       0.06492558       0.00000000 </v>
    <v>       0.00000000       0.00000000       0.06492558 </v>
   </varray>
  </crystal>
  <varray name="positions" >
   <v>       0.33617811       0.44145128       0.56638031 </v>
   <v>       0.33653716       0.52792260       0.57515630 </v>
   <v>       0.41555118       0.58152663       0.55501577 </v>
   <v>       0.41384350       0.38926634       0.53906289 </v>
   <v>       0.49262637       0.44309757       0.50797786 </v>
   <v>       0.46841833       0.53701345       0.48229676 </v>
   <v>       0.54636783       0.58670101       0.46125866 </v>
   <v>       0.27674934       0.40499957       0.57998484 </v>
   <v>       0.43443325       0.34885153       0.59463838 </v>
   <v>       0.39393079       0.34226169       0.48884693 </v>
   <v>       0.27774262       0.56179839       0.59592663 </v>
   <v>       0.45713295       0.58863723       0.61305729 </v>
   <v>       0.39744341       0.64771966       0.53526842 </v>
   <v>       0.52366650       0.41100661       0.45226068 </v>
   <v>       0.54214914       0.44665919       0.55933081 </v>
   <v>       0.42732489       0.53560719       0.42351933 </v>
   <v>       0.60924932       0.62640853       0.44641485 </v>
  </varray>
 </structure>
</modeling>
