   18   18    1    1
  0.1875000E+03  0.1500000E-08  0.1500000E-08  0.1500000E-08  0.5000000E-15
  1.000000000000000E-004
  CAR 
 unknown system                          
     50      1     40
 
  0.0000000E+00  0.0000000E+00  0.0000000E+00  0.1000000E+01
      1        -23.022771   1.000000
      2        -22.874142   1.000000
      3        -21.030335   1.000000
      4        -20.081404   1.000000
      5        -18.127278   1.000000
      6        -17.741308   1.000000
      7        -15.434084   1.000000
      8        -13.976508   1.000000
      9        -13.491089   1.000000
     10        -13.036813   1.000000
     11        -12.162571   1.000000
     12        -11.228999   1.000000
     13        -10.841651   1.000000
     14        -10.330352   1.000000
     15        -10.123565   1.000000
     16         -9.198036   1.000000
     17         -8.953549   1.000000
     18         -8.799035   1.000000
     19         -8.774275   1.000000
     20         -8.630685   1.000000
     21         -8.524446   1.000000
     22         -8.449677   1.000000
     23         -8.073961   1.000000
     24         -7.217225   1.000000
     25         -5.989209   1.000000
     26         -3.572567   0.000000
     27         -2.329945   0.000000
     28         -1.064172   0.000000
     29         -0.850113   0.000000
     30         -0.340541   0.000000
     31         -0.113443   0.000000
     32          0.097031   0.000000
     33          0.237591   0.000000
     34          0.375083   0.000000
     35          0.475932   0.000000
     36          0.534435   0.000000
     37          0.580543   0.000000
     38          0.658127   0.000000
     39          0.761394   0.000000
     40          1.088423   0.000000
