       N       E                     dE             d eps       ncg     rms          rms(c)
DAV:   1     0.337673098502E+03    0.33767E+03   -0.10143E+04    76   0.668E+02
DAV:   2     0.710890997821E+02   -0.26658E+03   -0.24762E+03    88   0.138E+02
DAV:   3    -0.894358174371E+02   -0.16052E+03   -0.15998E+03    72   0.108E+02
DAV:   4    -0.113700520095E+03   -0.24265E+02   -0.24208E+02    80   0.588E+01
DAV:   5    -0.114057113248E+03   -0.35659E+00   -0.35469E+00    88   0.868E+00    0.170E+01
RMM:   6    -0.105667021289E+03    0.83901E+01   -0.11279E+01    60   0.137E+01    0.925E+00
RMM:   7    -0.103579734979E+03    0.20873E+01   -0.10577E+01    60   0.129E+01    0.396E+00
RMM:   8    -0.103400734497E+03    0.17900E+00   -0.74810E-01    60   0.447E+00    0.241E+00
RMM:   9    -0.103297372482E+03    0.10336E+00   -0.48661E-01    60   0.301E+00    0.708E-01
RMM:  10    -0.103292547167E+03    0.48253E-02   -0.80245E-02    63   0.126E+00    0.327E-01
RMM:  11    -0.103303185211E+03   -0.10638E-01   -0.12200E-01    60   0.131E+00    0.426E-01
RMM:  12    -0.103297749535E+03    0.54357E-02   -0.11431E-02    61   0.547E-01    0.255E-01
RMM:  13    -0.103304590494E+03   -0.68410E-02   -0.26272E-02    60   0.621E-01    0.125E-01
RMM:  14    -0.103307131840E+03   -0.25413E-02   -0.48778E-03    60   0.312E-01    0.821E-02
RMM:  15    -0.103318080548E+03   -0.10949E-01   -0.43406E-03    61   0.236E-01    0.381E-02
RMM:  16    -0.103321271668E+03   -0.31911E-02   -0.11966E-03    66   0.118E-01    0.357E-02
RMM:  17    -0.103324954984E+03   -0.36833E-02   -0.83859E-04    60   0.105E-01    0.164E-02
RMM:  18    -0.103325645493E+03   -0.69051E-03   -0.20493E-04    59   0.502E-02    0.165E-02
RMM:  19    -0.103326439378E+03   -0.79389E-03   -0.21483E-04    60   0.530E-02    0.195E-02
RMM:  20    -0.103326561969E+03   -0.12259E-03   -0.47452E-05    50   0.245E-02    0.697E-03
RMM:  21    -0.103326697690E+03   -0.13572E-03   -0.33655E-05    48   0.214E-02    0.464E-03
RMM:  22    -0.103326732721E+03   -0.35031E-04   -0.41335E-06    39   0.954E-03    0.208E-03
RMM:  23    -0.103326759151E+03   -0.26430E-04   -0.23761E-06    38   0.623E-03    0.921E-04
RMM:  24    -0.103326771210E+03   -0.12059E-04   -0.33660E-07    22   0.338E-03    0.465E-04
RMM:  25    -0.103326778164E+03   -0.69535E-05   -0.34525E-07    24   0.375E-03
   1 F= -.10352625E+03 E0= -.10352625E+03  d E =-.103526E+03
       N       E                     dE             d eps       ncg     rms          rms(c)
DAV:   1    -0.103333925683E+03   -0.71545E-02   -0.39080E-01    82   0.367E+00    0.144E-01
RMM:   2    -0.103334100947E+03   -0.17526E-03   -0.49029E-03    60   0.406E-01    0.898E-02
RMM:   3    -0.103334096158E+03    0.47889E-05   -0.11182E-03    60   0.189E-01    0.269E-02
RMM:   4    -0.103334121830E+03   -0.25672E-04   -0.22037E-04    65   0.867E-02    0.170E-02
RMM:   5    -0.103334127764E+03   -0.59340E-05   -0.53750E-05    52   0.419E-02
   2 F= -.10353364E+03 E0= -.10353364E+03  d E =-.738776E-02
       N       E                     dE             d eps       ncg     rms          rms(c)
DAV:   1    -0.103339721739E+03   -0.55999E-02   -0.62822E-01    72   0.464E+00    0.182E-01
RMM:   2    -0.103340124430E+03   -0.40269E-03   -0.85540E-03    60   0.548E-01    0.115E-01
RMM:   3    -0.103340147305E+03   -0.22875E-04   -0.17609E-03    60   0.243E-01    0.375E-02
RMM:   4    -0.103340196182E+03   -0.48877E-04   -0.44812E-04    65   0.117E-01    0.215E-02
RMM:   5    -0.103340200648E+03   -0.44658E-05   -0.81592E-05    60   0.495E-02
   3 F= -.10353980E+03 E0= -.10353980E+03  d E =-.615508E-02
       N       E                     dE             d eps       ncg     rms          rms(c)
DAV:   1    -0.103343007413E+03   -0.28112E-02   -0.22837E-01    60   0.280E+00    0.115E-01
RMM:   2    -0.103343125787E+03   -0.11837E-03   -0.31239E-03    60   0.328E-01    0.717E-02
RMM:   3    -0.103343127498E+03   -0.17104E-05   -0.62811E-04    60   0.146E-01    0.289E-02
RMM:   4    -0.103343144423E+03   -0.16926E-04   -0.15659E-04    61   0.714E-02    0.137E-02
RMM:   5    -0.103343149559E+03   -0.51354E-05   -0.29727E-05    44   0.324E-02
   4 F= -.10354276E+03 E0= -.10354276E+03  d E =-.296794E-02
       N       E                     dE             d eps       ncg     rms          rms(c)
DAV:   1    -0.103344917941E+03   -0.17735E-02   -0.14384E-01    60   0.220E+00    0.858E-02
RMM:   2    -0.103345013751E+03   -0.95810E-04   -0.19049E-03    60   0.256E-01    0.538E-02
RMM:   3    -0.103345031180E+03   -0.17429E-04   -0.38431E-04    61   0.114E-01    0.181E-02
RMM:   4    -0.103345042193E+03   -0.11013E-04   -0.88085E-05    61   0.533E-02    0.100E-02
RMM:   5    -0.103345044057E+03   -0.18642E-05   -0.15980E-05    40   0.229E-02
   5 F= -.10354470E+03 E0= -.10354470E+03  d E =-.193241E-02
       N       E                     dE             d eps       ncg     rms          rms(c)
DAV:   1    -0.103347475592E+03   -0.24334E-02   -0.71529E-01    60   0.489E+00    0.189E-01
RMM:   2    -0.103348005654E+03   -0.53006E-03   -0.90702E-03    60   0.558E-01    0.117E-01
RMM:   3    -0.103348097847E+03   -0.92194E-04   -0.17515E-03    60   0.249E-01    0.354E-02
RMM:   4    -0.103348141939E+03   -0.44092E-04   -0.39649E-04    65   0.115E-01    0.177E-02
RMM:   5    -0.103348148885E+03   -0.69459E-05   -0.90404E-05    60   0.547E-02
   6 F= -.10354784E+03 E0= -.10354784E+03  d E =-.314773E-02
       N       E                     dE             d eps       ncg     rms          rms(c)
DAV:   1    -0.103350078819E+03   -0.19369E-02   -0.21867E+00    60   0.854E+00    0.328E-01
RMM:   2    -0.103351809878E+03   -0.17311E-02   -0.28910E-02    60   0.987E-01    0.205E-01
RMM:   3    -0.103352042990E+03   -0.23311E-03   -0.53508E-03    60   0.434E-01    0.680E-02
RMM:   4    -0.103352177421E+03   -0.13443E-03   -0.12378E-03    63   0.205E-01    0.341E-02
RMM:   5    -0.103352191949E+03   -0.14528E-04   -0.25087E-04    64   0.865E-02    0.101E-02
RMM:   6    -0.103352199984E+03   -0.80350E-05   -0.46938E-05    51   0.379E-02
   7 F= -.10355200E+03 E0= -.10355200E+03  d E =-.415320E-02
       N       E                     dE             d eps       ncg     rms          rms(c)
DAV:   1    -0.103353429382E+03   -0.12374E-02   -0.35294E-01    60   0.347E+00    0.151E-01
RMM:   2    -0.103353614364E+03   -0.18498E-03   -0.54209E-03    60   0.422E-01    0.940E-02
RMM:   3    -0.103353609560E+03    0.48038E-05   -0.95256E-04    60   0.182E-01    0.447E-02
RMM:   4    -0.103353632873E+03   -0.23313E-04   -0.30881E-04    61   0.953E-02    0.146E-02
RMM:   5    -0.103353639400E+03   -0.65269E-05   -0.44086E-05    48   0.366E-02
   8 F= -.10355342E+03 E0= -.10355342E+03  d E =-.142449E-02
       N       E                     dE             d eps       ncg     rms          rms(c)
DAV:   1    -0.103354789323E+03   -0.11564E-02   -0.60986E-01    60   0.452E+00    0.177E-01
RMM:   2    -0.103355253463E+03   -0.46414E-03   -0.88401E-03    60   0.539E-01    0.112E-01
RMM:   3    -0.103355306907E+03   -0.53444E-04   -0.15476E-03    60   0.234E-01    0.466E-02
RMM:   4    -0.103355351330E+03   -0.44423E-04   -0.42219E-04    62   0.117E-01    0.207E-02
RMM:   5    -0.103355356971E+03   -0.56407E-05   -0.74507E-05    56   0.472E-02
   9 F= -.10355519E+03 E0= -.10355519E+03  d E =-.177129E-02
       N       E                     dE             d eps       ncg     rms          rms(c)
DAV:   1    -0.103356079752E+03   -0.72842E-03   -0.16367E-01    60   0.235E+00    0.958E-02
RMM:   2    -0.103356190236E+03   -0.11048E-03   -0.23841E-03    60   0.280E-01    0.596E-02
RMM:   3    -0.103356200825E+03   -0.10589E-04   -0.41951E-04    60   0.122E-01    0.259E-02
RMM:   4    -0.103356212406E+03   -0.11581E-04   -0.11465E-04    61   0.609E-02    0.936E-03
RMM:   5    -0.103356216433E+03   -0.40275E-05   -0.20756E-05    43   0.248E-02
  10 F= -.10355604E+03 E0= -.10355604E+03  d E =-.845761E-03
       N       E                     dE             d eps       ncg     rms          rms(c)
DAV:   1    -0.103356655340E+03   -0.44293E-03   -0.31372E-01    60   0.323E+00    0.124E-01
RMM:   2    -0.103356907189E+03   -0.25185E-03   -0.43351E-03    60   0.379E-01    0.773E-02
RMM:   3    -0.103356951855E+03   -0.44665E-04   -0.76068E-04    60   0.165E-01    0.282E-02
RMM:   4    -0.103356973328E+03   -0.21474E-04   -0.18742E-04    62   0.794E-02    0.131E-02
RMM:   5    -0.103356976733E+03   -0.34050E-05   -0.33597E-05    46   0.329E-02
  11 F= -.10355682E+03 E0= -.10355682E+03  d E =-.780062E-03
       N       E                     dE             d eps       ncg     rms          rms(c)
DAV:   1    -0.103357330773E+03   -0.35745E-03   -0.45455E-01    60   0.387E+00    0.146E-01
RMM:   2    -0.103357707364E+03   -0.37659E-03   -0.59683E-03    60   0.447E-01    0.910E-02
RMM:   3    -0.103357781456E+03   -0.74091E-04   -0.10556E-03    60   0.196E-01    0.270E-02
RMM:   4    -0.103357807407E+03   -0.25951E-04   -0.22430E-04    62   0.907E-02    0.120E-02
RMM:   5    -0.103357814617E+03   -0.72104E-05   -0.61206E-05    52   0.435E-02
  12 F= -.10355765E+03 E0= -.10355765E+03  d E =-.834529E-03
       N       E                     dE             d eps       ncg     rms          rms(c)
DAV:   1    -0.103357919125E+03   -0.11172E-03   -0.14554E-01    60   0.221E+00    0.939E-02
RMM:   2    -0.103358012312E+03   -0.93187E-04   -0.22488E-03    60   0.269E-01    0.583E-02
RMM:   3    -0.103358019056E+03   -0.67431E-05   -0.39168E-04    60   0.117E-01    0.271E-02
RMM:   4    -0.103358029831E+03   -0.10776E-04   -0.11782E-04    60   0.605E-02    0.909E-03
RMM:   5    -0.103358033275E+03   -0.34436E-05   -0.19045E-05    42   0.240E-02
  13 F= -.10355785E+03 E0= -.10355785E+03  d E =-.192287E-03
       N       E                     dE             d eps       ncg     rms          rms(c)
DAV:   1    -0.103358423920E+03   -0.39409E-03   -0.21416E-01    60   0.267E+00    0.107E-01
RMM:   2    -0.103358588262E+03   -0.16434E-03   -0.32757E-03    60   0.323E-01    0.670E-02
RMM:   3    -0.103358610461E+03   -0.22199E-04   -0.56036E-04    60   0.141E-01    0.299E-02
RMM:   4    -0.103358627525E+03   -0.17065E-04   -0.16167E-04    61   0.717E-02    0.127E-02
RMM:   5    -0.103358629799E+03   -0.22739E-05   -0.25129E-05    44   0.287E-02
  14 F= -.10355845E+03 E0= -.10355845E+03  d E =-.608207E-03
       N       E                     dE             d eps       ncg     rms          rms(c)
DAV:   1    -0.103358893465E+03   -0.26594E-03   -0.77481E-02    60   0.161E+00    0.649E-02
RMM:   2    -0.103358949609E+03   -0.56145E-04   -0.11346E-03    60   0.192E-01    0.403E-02
RMM:   3    -0.103358957580E+03   -0.79708E-05   -0.19625E-04    60   0.839E-02    0.171E-02
RMM:   4    -0.103358963312E+03   -0.57323E-05   -0.52364E-05    51   0.417E-02
  15 F= -.10355876E+03 E0= -.10355876E+03  d E =-.309427E-03
       N       E                     dE             d eps       ncg     rms          rms(c)
DAV:   1    -0.103359176191E+03   -0.21861E-03   -0.92266E-02    60   0.175E+00    0.685E-02
RMM:   2    -0.103359250833E+03   -0.74642E-04   -0.13412E-03    60   0.209E-01    0.430E-02
RMM:   3    -0.103359265171E+03   -0.14338E-04   -0.23088E-04    60   0.910E-02    0.167E-02
RMM:   4    -0.103359272353E+03   -0.71813E-05   -0.58423E-05    53   0.443E-02
  16 F= -.10355907E+03 E0= -.10355907E+03  d E =-.304643E-03
       N       E                     dE             d eps       ncg     rms          rms(c)
DAV:   1    -0.103359554915E+03   -0.28974E-03   -0.92897E-02    60   0.175E+00    0.672E-02
RMM:   2    -0.103359632353E+03   -0.77438E-04   -0.12479E-03    60   0.204E-01    0.421E-02
RMM:   3    -0.103359649682E+03   -0.17330E-04   -0.21751E-04    60   0.894E-02    0.121E-02
RMM:   4    -0.103359655822E+03   -0.61400E-05   -0.48786E-05    51   0.413E-02
  17 F= -.10355943E+03 E0= -.10355943E+03  d E =-.360451E-03
       N       E                     dE             d eps       ncg     rms          rms(c)
DAV:   1    -0.103359899199E+03   -0.24952E-03   -0.40856E-02    60   0.117E+00    0.455E-02
RMM:   2    -0.103359931935E+03   -0.32736E-04   -0.56054E-04    60   0.137E-01    0.284E-02
RMM:   3    -0.103359938815E+03   -0.68799E-05   -0.10012E-04    60   0.602E-02    0.942E-03
RMM:   4    -0.103359942101E+03   -0.32859E-05   -0.23840E-05    43   0.283E-02
  18 F= -.10355969E+03 E0= -.10355969E+03  d E =-.264682E-03
       N       E                     dE             d eps       ncg     rms          rms(c)
DAV:   1    -0.103360139966E+03   -0.20115E-03   -0.40912E-02    60   0.118E+00    0.474E-02
RMM:   2    -0.103360169354E+03   -0.29388E-04   -0.59849E-04    60   0.141E-01    0.298E-02
RMM:   3    -0.103360174918E+03   -0.55637E-05   -0.10729E-04    60   0.619E-02    0.116E-02
RMM:   4    -0.103360178456E+03   -0.35379E-05   -0.29136E-05    46   0.309E-02
  19 F= -.10355992E+03 E0= -.10355992E+03  d E =-.225552E-03
       N       E                     dE             d eps       ncg     rms          rms(c)
DAV:   1    -0.103360433209E+03   -0.25829E-03   -0.46232E-02    60   0.126E+00    0.567E-02
RMM:   2    -0.103360456339E+03   -0.23129E-04   -0.74074E-04    60   0.155E-01    0.349E-02
RMM:   3    -0.103360456098E+03    0.24033E-06   -0.12873E-04    59   0.668E-02    0.169E-02
RMM:   4    -0.103360459915E+03   -0.38167E-05   -0.44115E-05    47   0.355E-02
  20 F= -.10356017E+03 E0= -.10356017E+03  d E =-.247220E-03
       N       E                     dE             d eps       ncg     rms          rms(c)
DAV:   1    -0.103360778299E+03   -0.32220E-03   -0.36945E-02    60   0.113E+00    0.503E-02
RMM:   2    -0.103360795926E+03   -0.17627E-04   -0.58154E-04    60   0.140E-01    0.311E-02
RMM:   3    -0.103360797926E+03   -0.19996E-05   -0.10611E-04    60   0.612E-02    0.138E-02
RMM:   4    -0.103360801726E+03   -0.38000E-05   -0.36299E-05    46   0.329E-02
  21 F= -.10356050E+03 E0= -.10356050E+03  d E =-.332788E-03
       N       E                     dE             d eps       ncg     rms          rms(c)
DAV:   1    -0.103361116642E+03   -0.31872E-03   -0.29774E-02    72   0.101E+00    0.424E-02
RMM:   2    -0.103361135247E+03   -0.18605E-04   -0.36971E-04    60   0.116E-01    0.259E-02
RMM:   3    -0.103361140212E+03   -0.49648E-05   -0.71236E-05    59   0.507E-02
  22 F= -.10356081E+03 E0= -.10356081E+03  d E =-.312859E-03
       N       E                     dE             d eps       ncg     rms          rms(c)
DAV:   1    -0.103361413347E+03   -0.27810E-03   -0.15797E-02    72   0.745E-01    0.318E-02
RMM:   2    -0.103361424139E+03   -0.10792E-04   -0.19593E-04    60   0.859E-02    0.198E-02
RMM:   3    -0.103361428165E+03   -0.40256E-05   -0.40241E-05    50   0.381E-02
  23 F= -.10356108E+03 E0= -.10356108E+03  d E =-.268903E-03
       N       E                     dE             d eps       ncg     rms          rms(c)
DAV:   1    -0.103361443658E+03   -0.19519E-04   -0.20418E-03    72   0.251E-01    0.922E-03
RMM:   2    -0.103361445804E+03   -0.21457E-05   -0.28229E-05    43   0.287E-02
  24 F= -.10356110E+03 E0= -.10356110E+03  d E =-.193804E-04
       N       E                     dE             d eps       ncg     rms          rms(c)
DAV:   1    -0.103361508755E+03   -0.65097E-04   -0.77244E-04    60   0.156E-01    0.713E-03
RMM:   2    -0.103361509557E+03   -0.80278E-06   -0.12832E-05    39   0.187E-02
  25 F= -.10356116E+03 E0= -.10356116E+03  d E =-.607836E-04
       N       E                     dE             d eps       ncg     rms          rms(c)
DAV:   1    -0.103361578627E+03   -0.69872E-04   -0.16925E-03    66   0.224E-01    0.938E-03
RMM:   2    -0.103361580242E+03   -0.16148E-05   -0.26085E-05    42   0.265E-02
  26 F= -.10356123E+03 E0= -.10356123E+03  d E =-.683004E-04
       N       E                     dE             d eps       ncg     rms          rms(c)
DAV:   1    -0.103362058416E+03   -0.47979E-03   -0.33337E-01    60   0.313E+00    0.125E-01
RMM:   2    -0.103362392290E+03   -0.33387E-03   -0.49501E-03    60   0.365E-01    0.727E-02
RMM:   3    -0.103362463423E+03   -0.71133E-04   -0.74793E-04    60   0.156E-01    0.306E-02
RMM:   4    -0.103362486005E+03   -0.22581E-04   -0.18316E-04    62   0.739E-02    0.131E-02
RMM:   5    -0.103362491038E+03   -0.50337E-05   -0.40277E-05    45   0.302E-02
  27 F= -.10356210E+03 E0= -.10356210E+03  d E =-.867735E-03
       N       E                     dE             d eps       ncg     rms          rms(c)
DAV:   1    -0.103362424794E+03    0.61210E-04   -0.28188E-03    80   0.287E-01    0.124E-02
RMM:   2    -0.103362428431E+03   -0.36371E-05   -0.36760E-05    44   0.305E-02
  28 F= -.10356204E+03 E0= -.10356204E+03  d E =0.581456E-04
       N       E                     dE             d eps       ncg     rms          rms(c)
DAV:   1    -0.103362509677E+03   -0.84883E-04   -0.32499E-03    66   0.304E-01    0.107E-02
RMM:   2    -0.103362513722E+03   -0.40444E-05   -0.44397E-05    44   0.346E-02
  29 F= -.10356212E+03 E0= -.10356212E+03  d E =-.800263E-04
       N       E                     dE             d eps       ncg     rms          rms(c)
DAV:   1    -0.103362571056E+03   -0.61379E-04   -0.12640E-03    72   0.197E-01    0.944E-03
RMM:   2    -0.103362572225E+03   -0.11692E-05   -0.21064E-05    40   0.239E-02
  30 F= -.10356217E+03 E0= -.10356217E+03  d E =-.551935E-04
       N       E                     dE             d eps       ncg     rms          rms(c)
DAV:   1    -0.103362704989E+03   -0.13393E-03   -0.77129E-03    60   0.480E-01    0.188E-02
RMM:   2    -0.103362712323E+03   -0.73342E-05   -0.11565E-04    50   0.558E-02    0.117E-02
RMM:   3    -0.103362714454E+03   -0.21304E-05   -0.18033E-05    41   0.236E-02
  31 F= -.10356231E+03 E0= -.10356231E+03  d E =-.132572E-03
       N       E                     dE             d eps       ncg     rms          rms(c)
DAV:   1    -0.103363076670E+03   -0.36435E-03   -0.98009E-02    60   0.171E+00    0.642E-02
RMM:   2    -0.103363172207E+03   -0.95537E-04   -0.14305E-03    60   0.198E-01    0.393E-02
RMM:   3    -0.103363193413E+03   -0.21206E-04   -0.21829E-04    60   0.844E-02    0.144E-02
RMM:   4    -0.103363199986E+03   -0.65739E-05   -0.56433E-05    49   0.398E-02
  32 F= -.10356276E+03 E0= -.10356276E+03  d E =-.453965E-03
       N       E                     dE             d eps       ncg     rms          rms(c)
DAV:   1    -0.103363257699E+03   -0.64286E-04   -0.78878E-04    74   0.158E-01    0.680E-03
RMM:   2    -0.103363258452E+03   -0.75323E-06   -0.12246E-05    39   0.191E-02
  33 F= -.10356281E+03 E0= -.10356281E+03  d E =-.541565E-04
       N       E                     dE             d eps       ncg     rms          rms(c)
DAV:   1    -0.103363270502E+03   -0.12803E-04   -0.20270E-05    74   0.285E-02    0.239E-03
RMM:   2    -0.103363271021E+03   -0.51910E-06   -0.68323E-07    23   0.515E-03
  34 F= -.10356283E+03 E0= -.10356283E+03  d E =-.119129E-04
       N       E                     dE             d eps       ncg     rms          rms(c)
DAV:   1    -0.103363315488E+03   -0.44986E-04   -0.42327E-04    66   0.117E-01    0.465E-03
RMM:   2    -0.103363316247E+03   -0.75884E-06   -0.58961E-06    38   0.132E-02
  35 F= -.10356287E+03 E0= -.10356287E+03  d E =-.420785E-04
       N       E                     dE             d eps       ncg     rms          rms(c)
DAV:   1    -0.103363620851E+03   -0.30536E-03   -0.24343E-02    60   0.888E-01    0.363E-02
RMM:   2    -0.103363639710E+03   -0.18860E-04   -0.32470E-04    60   0.992E-02    0.221E-02
RMM:   3    -0.103363645051E+03   -0.53405E-05   -0.52836E-05    49   0.424E-02
  36 F= -.10356317E+03 E0= -.10356317E+03  d E =-.304997E-03
       N       E                     dE             d eps       ncg     rms          rms(c)
DAV:   1    -0.103363852878E+03   -0.21317E-03   -0.11063E-02    60   0.599E-01    0.245E-02
RMM:   2    -0.103363862633E+03   -0.97543E-05   -0.16214E-04    60   0.704E-02    0.153E-02
RMM:   3    -0.103363865666E+03   -0.30334E-05   -0.28496E-05    46   0.307E-02
  37 F= -.10356338E+03 E0= -.10356338E+03  d E =-.203488E-03
       N       E                     dE             d eps       ncg     rms          rms(c)
DAV:   1    -0.103363720059E+03    0.14257E-03   -0.48444E-03    72   0.394E-01    0.157E-02
RMM:   2    -0.103363724077E+03   -0.40186E-05   -0.57703E-05    46   0.414E-02
  38 F= -.10356325E+03 E0= -.10356325E+03  d E =0.130720E-03
       N       E                     dE             d eps       ncg     rms          rms(c)
DAV:   1    -0.103363893498E+03   -0.17344E-03   -0.72766E-03    66   0.482E-01    0.174E-02
RMM:   2    -0.103363899889E+03   -0.63912E-05   -0.90118E-05    53   0.528E-02
  39 F= -.10356341E+03 E0= -.10356341E+03  d E =-.162091E-03
       N       E                     dE             d eps       ncg     rms          rms(c)
DAV:   1    -0.103364105643E+03   -0.21215E-03   -0.10024E-02    60   0.578E-01    0.263E-02
RMM:   2    -0.103364111803E+03   -0.61596E-05   -0.13869E-04    59   0.657E-02    0.163E-02
RMM:   3    -0.103364114439E+03   -0.26362E-05   -0.24656E-05    45   0.288E-02
  40 F= -.10356361E+03 E0= -.10356361E+03  d E =-.197864E-03
       N       E                     dE             d eps       ncg     rms          rms(c)
DAV:   1    -0.103363998425E+03    0.11338E-03   -0.30435E-03    60   0.316E-01    0.126E-02
RMM:   2    -0.103364000617E+03   -0.21912E-05   -0.34478E-05    43   0.326E-02
  41 F= -.10356350E+03 E0= -.10356350E+03  d E =0.105142E-03
       N       E                     dE             d eps       ncg     rms          rms(c)
DAV:   1    -0.103364108739E+03   -0.11031E-03   -0.28182E-03    66   0.301E-01    0.106E-02
RMM:   2    -0.103364111289E+03   -0.25498E-05   -0.34348E-05    45   0.330E-02
  42 F= -.10356360E+03 E0= -.10356360E+03  d E =-.101779E-03
       N       E                     dE             d eps       ncg     rms          rms(c)
DAV:   1    -0.103364330922E+03   -0.22218E-03   -0.11511E-02    60   0.620E-01    0.271E-02
RMM:   2    -0.103364338225E+03   -0.73032E-05   -0.15225E-04    60   0.694E-02    0.167E-02
RMM:   3    -0.103364340987E+03   -0.27618E-05   -0.26522E-05    45   0.301E-02
  43 F= -.10356381E+03 E0= -.10356381E+03  d E =-.210988E-03
       N       E                     dE             d eps       ncg     rms          rms(c)
DAV:   1    -0.103364287544E+03    0.50682E-04   -0.67337E-04    72   0.149E-01    0.597E-03
RMM:   2    -0.103364288028E+03   -0.48441E-06   -0.64834E-06    38   0.142E-02
  44 F= -.10356377E+03 E0= -.10356377E+03  d E =0.485775E-04
       N       E                     dE             d eps       ncg     rms          rms(c)
DAV:   1    -0.103364355708E+03   -0.68164E-04   -0.10669E-03    66   0.186E-01    0.688E-03
RMM:   2    -0.103364356669E+03   -0.96134E-06   -0.13497E-05    38   0.206E-02
  45 F= -.10356383E+03 E0= -.10356383E+03  d E =-.628005E-04
       N       E                     dE             d eps       ncg     rms          rms(c)
DAV:   1    -0.103364546475E+03   -0.19077E-03   -0.84107E-03    60   0.531E-01    0.231E-02
RMM:   2    -0.103364551613E+03   -0.51373E-05   -0.10765E-04    57   0.590E-02    0.142E-02
RMM:   3    -0.103364553570E+03   -0.19574E-05   -0.18885E-05    42   0.254E-02
  46 F= -.10356401E+03 E0= -.10356401E+03  d E =-.180329E-03
       N       E                     dE             d eps       ncg     rms          rms(c)
DAV:   1    -0.103364832489E+03   -0.28088E-03   -0.20107E-02    60   0.819E-01    0.341E-02
RMM:   2    -0.103364846940E+03   -0.14451E-04   -0.26386E-04    60   0.925E-02    0.209E-02
RMM:   3    -0.103364851629E+03   -0.46894E-05   -0.45857E-05    49   0.399E-02
  47 F= -.10356428E+03 E0= -.10356428E+03  d E =-.271092E-03
       N       E                     dE             d eps       ncg     rms          rms(c)
DAV:   1    -0.103364833786E+03    0.13154E-04   -0.10915E-04    74   0.603E-02    0.327E-03
RMM:   2    -0.103364833970E+03   -0.18388E-06   -0.72732E-07    32   0.525E-03
  48 F= -.10356426E+03 E0= -.10356426E+03  d E =0.158470E-04
       N       E                     dE             d eps       ncg     rms          rms(c)
DAV:   1    -0.103364916030E+03   -0.82244E-04   -0.15922E-03    66   0.230E-01    0.941E-03
RMM:   2    -0.103364917233E+03   -0.12033E-05   -0.20338E-05    39   0.255E-02
  49 F= -.10356434E+03 E0= -.10356434E+03  d E =-.756664E-04
       N       E                     dE             d eps       ncg     rms          rms(c)
DAV:   1    -0.103365047303E+03   -0.13127E-03   -0.39285E-03    60   0.365E-01    0.165E-02
RMM:   2    -0.103365049498E+03   -0.21947E-05   -0.50516E-05    48   0.405E-02
  50 F= -.10356446E+03 E0= -.10356446E+03  d E =-.119911E-03
       N       E                     dE             d eps       ncg     rms          rms(c)
DAV:   1    -0.103365042549E+03    0.47543E-05   -0.37541E-05    80   0.341E-02    0.220E-03
RMM:   2    -0.103365042774E+03   -0.22540E-06   -0.73400E-07    21   0.575E-03
  51 F= -.10356445E+03 E0= -.10356445E+03  d E =0.576715E-05
       N       E                     dE             d eps       ncg     rms          rms(c)
DAV:   1    -0.103365078706E+03   -0.36158E-04   -0.29486E-04    66   0.994E-02    0.414E-03
RMM:   2    -0.103365079015E+03   -0.30906E-06   -0.37819E-06    32   0.110E-02
  52 F= -.10356449E+03 E0= -.10356449E+03  d E =-.328497E-04
       N       E                     dE             d eps       ncg     rms          rms(c)
DAV:   1    -0.103365387621E+03   -0.30892E-03   -0.25905E-02    60   0.934E-01    0.398E-02
RMM:   2    -0.103365403744E+03   -0.16122E-04   -0.31762E-04    60   0.102E-01    0.241E-02
RMM:   3    -0.103365409252E+03   -0.55085E-05   -0.54742E-05    52   0.438E-02
  53 F= -.10356478E+03 E0= -.10356478E+03  d E =-.298817E-03
       N       E                     dE             d eps       ncg     rms          rms(c)
DAV:   1    -0.103365415434E+03   -0.11691E-04   -0.28632E-05    66   0.305E-02    0.353E-03
RMM:   2    -0.103365415630E+03   -0.19580E-06   -0.15437E-06    29   0.763E-03
  54 F= -.10356479E+03 E0= -.10356479E+03  d E =-.628278E-05
       N       E                     dE             d eps       ncg     rms          rms(c)
DAV:   1    -0.103365443118E+03   -0.27683E-04   -0.18114E-04    60   0.790E-02    0.325E-03
RMM:   2    -0.103365443412E+03   -0.29456E-06   -0.24930E-06    36   0.899E-03
  55 F= -.10356482E+03 E0= -.10356482E+03  d E =-.252836E-04
       N       E                     dE             d eps       ncg     rms          rms(c)
DAV:   1    -0.103365480452E+03   -0.37335E-04   -0.31879E-04    66   0.104E-01    0.485E-03
RMM:   2    -0.103365480733E+03   -0.28089E-06   -0.42210E-06    34   0.116E-02
  56 F= -.10356485E+03 E0= -.10356485E+03  d E =-.336196E-04
       N       E                     dE             d eps       ncg     rms          rms(c)
DAV:   1    -0.103365668197E+03   -0.18774E-03   -0.94780E-03    60   0.566E-01    0.244E-02
RMM:   2    -0.103365673789E+03   -0.55923E-05   -0.11591E-04    60   0.621E-02    0.149E-02
RMM:   3    -0.103365675906E+03   -0.21174E-05   -0.20774E-05    42   0.268E-02
  57 F= -.10356503E+03 E0= -.10356503E+03  d E =-.177054E-03
       N       E                     dE             d eps       ncg     rms          rms(c)
DAV:   1    -0.103365790157E+03   -0.11637E-03   -0.34504E-03    60   0.342E-01    0.150E-02
RMM:   2    -0.103365792462E+03   -0.23051E-05   -0.50182E-05    48   0.405E-02
  58 F= -.10356513E+03 E0= -.10356513E+03  d E =-.103675E-03
       N       E                     dE             d eps       ncg     rms          rms(c)
DAV:   1    -0.103365849225E+03   -0.59069E-04   -0.76977E-04    72   0.164E-01    0.954E-03
RMM:   2    -0.103365849531E+03   -0.30579E-06   -0.12176E-05    35   0.200E-02
  59 F= -.10356518E+03 E0= -.10356518E+03  d E =-.521445E-04
       N       E                     dE             d eps       ncg     rms          rms(c)
DAV:   1    -0.103365929205E+03   -0.79980E-04   -0.16057E-03    66   0.235E-01    0.107E-02
RMM:   2    -0.103365930135E+03   -0.92921E-06   -0.20416E-05    37   0.260E-02
  60 F= -.10356526E+03 E0= -.10356526E+03  d E =-.725894E-04
       N       E                     dE             d eps       ncg     rms          rms(c)
DAV:   1    -0.103365958602E+03   -0.29397E-04   -0.17292E-04    72   0.791E-02    0.463E-03
RMM:   2    -0.103365958729E+03   -0.12641E-06   -0.24418E-06    33   0.914E-03
  61 F= -.10356528E+03 E0= -.10356528E+03  d E =-.256827E-04
       N       E                     dE             d eps       ncg     rms          rms(c)
DAV:   1    -0.103366080981E+03   -0.12238E-03   -0.40463E-03    60   0.372E-01    0.160E-02
RMM:   2    -0.103366083362E+03   -0.23814E-05   -0.48549E-05    51   0.406E-02
  62 F= -.10356539E+03 E0= -.10356539E+03  d E =-.112457E-03
       N       E                     dE             d eps       ncg     rms          rms(c)
DAV:   1    -0.103366212940E+03   -0.13196E-03   -0.43394E-03    60   0.387E-01    0.183E-02
RMM:   2    -0.103366214951E+03   -0.20104E-05   -0.55346E-05    53   0.432E-02
  63 F= -.10356551E+03 E0= -.10356551E+03  d E =-.117203E-03
       N       E                     dE             d eps       ncg     rms          rms(c)
DAV:   1    -0.103366212566E+03    0.37454E-06   -0.33366E-05    82   0.318E-02    0.262E-03
RMM:   2    -0.103366212710E+03   -0.14385E-06   -0.50005E-07    22   0.470E-03
  64 F= -.10356551E+03 E0= -.10356551E+03  d E =0.148418E-05
       N       E                     dE             d eps       ncg     rms          rms(c)
DAV:   1    -0.103366208344E+03    0.42220E-05   -0.57325E-06    52   0.142E-02    0.562E-04
RMM:   2    -0.103366208503E+03   -0.15898E-06   -0.88838E-08    16   0.314E-03
  65 F= -.10356551E+03 E0= -.10356551E+03  d E =0.372040E-05
       N       E                     dE             d eps       ncg     rms          rms(c)
DAV:   1    -0.103366234102E+03   -0.25758E-04   -0.33802E-04    66   0.107E-01    0.573E-03
RMM:   2    -0.103366234377E+03   -0.27433E-06   -0.60186E-06    38   0.134E-02
  66 F= -.10356553E+03 E0= -.10356553E+03  d E =-.244476E-04
       N       E                     dE             d eps       ncg     rms          rms(c)
DAV:   1    -0.103366271827E+03   -0.37725E-04   -0.61649E-04    66   0.152E-01    0.880E-03
RMM:   2    -0.103366271781E+03    0.45703E-07   -0.10225E-05    38   0.191E-02
  67 F= -.10356556E+03 E0= -.10356556E+03  d E =-.327593E-04
       N       E                     dE             d eps       ncg     rms          rms(c)
DAV:   1    -0.103366267660E+03    0.41670E-05   -0.24611E-04    66   0.981E-02    0.400E-03
RMM:   2    -0.103366267897E+03   -0.23727E-06   -0.35991E-06    34   0.114E-02
  68 F= -.10356556E+03 E0= -.10356556E+03  d E =0.350728E-05
       N       E                     dE             d eps       ncg     rms          rms(c)
DAV:   1    -0.103366408813E+03   -0.14115E-03   -0.57168E-03    60   0.443E-01    0.201E-02
RMM:   2    -0.103366411629E+03   -0.28166E-05   -0.63498E-05    55   0.475E-02
  69 F= -.10356569E+03 E0= -.10356569E+03  d E =-.129158E-03
       N       E                     dE             d eps       ncg     rms          rms(c)
DAV:   1    -0.103366531691E+03   -0.12288E-03   -0.42214E-03    60   0.383E-01    0.193E-02
RMM:   2    -0.103366533230E+03   -0.15391E-05   -0.54170E-05    52   0.432E-02
  70 F= -.10356580E+03 E0= -.10356580E+03  d E =-.109980E-03
       N       E                     dE             d eps       ncg     rms          rms(c)
DAV:   1    -0.103366698903E+03   -0.16721E-03   -0.80552E-03    66   0.528E-01    0.252E-02
RMM:   2    -0.103366702345E+03   -0.34415E-05   -0.98628E-05    58   0.586E-02
  71 F= -.10356595E+03 E0= -.10356595E+03  d E =-.149229E-03
       N       E                     dE             d eps       ncg     rms          rms(c)
DAV:   1    -0.103366766326E+03   -0.67422E-04   -0.11703E-03    72   0.206E-01    0.115E-02
RMM:   2    -0.103366766855E+03   -0.52882E-06   -0.19093E-05    40   0.254E-02
  72 F= -.10356601E+03 E0= -.10356601E+03  d E =-.586855E-04
       N       E                     dE             d eps       ncg     rms          rms(c)
DAV:   1    -0.103366800553E+03   -0.34228E-04   -0.33288E-04    72   0.108E-01    0.617E-03
RMM:   2    -0.103366800791E+03   -0.23818E-06   -0.56410E-06    33   0.133E-02
  73 F= -.10356604E+03 E0= -.10356604E+03  d E =-.298190E-04
       N       E                     dE             d eps       ncg     rms          rms(c)
DAV:   1    -0.103366888806E+03   -0.88253E-04   -0.25646E-03    60   0.297E-01    0.130E-02
RMM:   2    -0.103366890418E+03   -0.16116E-05   -0.32715E-05    45   0.328E-02
  74 F= -.10356612E+03 E0= -.10356612E+03  d E =-.795918E-04
       N       E                     dE             d eps       ncg     rms          rms(c)
DAV:   1    -0.103366954742E+03   -0.65935E-04   -0.13933E-03    66   0.220E-01    0.108E-02
RMM:   2    -0.103366955493E+03   -0.75093E-06   -0.19350E-05    37   0.252E-02
  75 F= -.10356617E+03 E0= -.10356617E+03  d E =-.583122E-04
       N       E                     dE             d eps       ncg     rms          rms(c)
DAV:   1    -0.103367002786E+03   -0.48045E-04   -0.76409E-04    66   0.163E-01    0.780E-03
RMM:   2    -0.103367003273E+03   -0.48629E-06   -0.10964E-05    35   0.187E-02
  76 F= -.10356622E+03 E0= -.10356622E+03  d E =-.419519E-04
       N       E                     dE             d eps       ncg     rms          rms(c)
DAV:   1    -0.103367118178E+03   -0.11539E-03   -0.51173E-03    60   0.418E-01    0.182E-02
RMM:   2    -0.103367121316E+03   -0.31372E-05   -0.65439E-05    53   0.466E-02
  77 F= -.10356632E+03 E0= -.10356632E+03  d E =-.104260E-03
       N       E                     dE             d eps       ncg     rms          rms(c)
DAV:   1    -0.103367155174E+03   -0.36996E-04   -0.36921E-04    60   0.115E-01    0.758E-03
RMM:   2    -0.103367155293E+03   -0.11921E-06   -0.67213E-06    35   0.146E-02
  78 F= -.10356635E+03 E0= -.10356635E+03  d E =-.294952E-04
       N       E                     dE             d eps       ncg     rms          rms(c)
DAV:   1    -0.103367156226E+03   -0.10516E-05   -0.83761E-06    66   0.162E-02    0.146E-03
RMM:   2    -0.103367156375E+03   -0.14870E-06   -0.28164E-07    16   0.385E-03
  79 F= -.10356635E+03 E0= -.10356635E+03  d E =-.128544E-05
       N       E                     dE             d eps       ncg     rms          rms(c)
DAV:   1    -0.103367106362E+03    0.49864E-04   -0.89873E-04    66   0.173E-01    0.704E-03
RMM:   2    -0.103367107229E+03   -0.86685E-06   -0.11419E-05    38   0.190E-02
  80 F= -.10356631E+03 E0= -.10356631E+03  d E =0.430614E-04
       N       E                     dE             d eps       ncg     rms          rms(c)
DAV:   1    -0.103367313412E+03   -0.20705E-03   -0.19040E-02    60   0.796E-01    0.321E-02
RMM:   2    -0.103367326964E+03   -0.13552E-04   -0.23467E-04    60   0.876E-02    0.192E-02
RMM:   3    -0.103367330659E+03   -0.36943E-05   -0.38816E-05    47   0.369E-02
  81 F= -.10356650E+03 E0= -.10356650E+03  d E =-.196295E-03
       N       E                     dE             d eps       ncg     rms          rms(c)
DAV:   1    -0.103367373286E+03   -0.46322E-04   -0.81088E-04    60   0.165E-01    0.847E-03
RMM:   2    -0.103367373872E+03   -0.58593E-06   -0.16871E-05    40   0.226E-02
  82 F= -.10356654E+03 E0= -.10356654E+03  d E =-.364253E-04
       N       E                     dE             d eps       ncg     rms          rms(c)
DAV:   1    -0.103367370270E+03    0.30161E-05   -0.77454E-05    60   0.481E-02    0.360E-03
RMM:   2    -0.103367370472E+03   -0.20237E-06   -0.20039E-06    28   0.736E-03
  83 F= -.10356654E+03 E0= -.10356654E+03  d E =0.187084E-05
       N       E                     dE             d eps       ncg     rms          rms(c)
DAV:   1    -0.103367390431E+03   -0.20161E-04   -0.15149E-04    66   0.709E-02    0.333E-03
RMM:   2    -0.103367390592E+03   -0.16086E-06   -0.20293E-06    32   0.804E-03
  84 F= -.10356656E+03 E0= -.10356656E+03  d E =-.175564E-04
       N       E                     dE             d eps       ncg     rms          rms(c)
DAV:   1    -0.103367535086E+03   -0.14465E-03   -0.92123E-03    60   0.556E-01    0.238E-02
RMM:   2    -0.103367540855E+03   -0.57685E-05   -0.11594E-04    59   0.616E-02    0.145E-02
RMM:   3    -0.103367542786E+03   -0.19312E-05   -0.20062E-05    42   0.264E-02
  85 F= -.10356669E+03 E0= -.10356669E+03  d E =-.133438E-03
       N       E                     dE             d eps       ncg     rms          rms(c)
DAV:   1    -0.103367603912E+03   -0.63057E-04   -0.18443E-03    66   0.249E-01    0.124E-02
RMM:   2    -0.103367604841E+03   -0.92902E-06   -0.34934E-05    45   0.325E-02
  86 F= -.10356674E+03 E0= -.10356674E+03  d E =-.516040E-04
       N       E                     dE             d eps       ncg     rms          rms(c)
DAV:   1    -0.103367746867E+03   -0.14296E-03   -0.87101E-03    60   0.542E-01    0.251E-02
RMM:   2    -0.103367751649E+03   -0.47820E-05   -0.11519E-04    58   0.614E-02    0.154E-02
RMM:   3    -0.103367753770E+03   -0.21216E-05   -0.20379E-05    42   0.265E-02
  87 F= -.10356687E+03 E0= -.10356687E+03  d E =-.130855E-03
       N       E                     dE             d eps       ncg     rms          rms(c)
DAV:   1    -0.103367766370E+03   -0.14721E-04   -0.69712E-05    88   0.480E-02    0.293E-03
RMM:   2    -0.103367766494E+03   -0.12357E-06   -0.11114E-06    26   0.613E-03
  88 F= -.10356688E+03 E0= -.10356688E+03  d E =-.112466E-04
       N       E                     dE             d eps       ncg     rms          rms(c)
DAV:   1    -0.103367763834E+03    0.25365E-05   -0.44475E-06    58   0.120E-02    0.527E-04
RMM:   2    -0.103367764020E+03   -0.18660E-06   -0.38363E-08    14   0.269E-03
  89 F= -.10356688E+03 E0= -.10356688E+03  d E =0.201044E-05
       N       E                     dE             d eps       ncg     rms          rms(c)
DAV:   1    -0.103367792079E+03   -0.28245E-04   -0.32566E-04    66   0.104E-01    0.440E-03
RMM:   2    -0.103367792431E+03   -0.35244E-06   -0.43837E-06    35   0.118E-02
  90 F= -.10356691E+03 E0= -.10356691E+03  d E =-.249922E-04
       N       E                     dE             d eps       ncg     rms          rms(c)
DAV:   1    -0.103367790620E+03    0.14585E-05   -0.49020E-06    72   0.130E-02    0.807E-04
RMM:   2    -0.103367790745E+03   -0.12516E-06   -0.11949E-07    15   0.310E-03
  91 F= -.10356691E+03 E0= -.10356691E+03  d E =0.131519E-05
       N       E                     dE             d eps       ncg     rms          rms(c)
DAV:   1    -0.103367750265E+03    0.40355E-04   -0.65031E-04    66   0.147E-01    0.632E-03
RMM:   2    -0.103367750893E+03   -0.62776E-06   -0.96784E-06    39   0.171E-02
  92 F= -.10356687E+03 E0= -.10356687E+03  d E =0.342769E-04
       N       E                     dE             d eps       ncg     rms          rms(c)
DAV:   1    -0.103367763776E+03   -0.13511E-04   -0.63431E-04    66   0.139E-01    0.976E-03
RMM:   2    -0.103367763422E+03    0.35409E-06   -0.16051E-05    40   0.202E-02
  93 F= -.10356688E+03 E0= -.10356688E+03  d E =-.805381E-05
       N       E                     dE             d eps       ncg     rms          rms(c)
DAV:   1    -0.103367760368E+03    0.34079E-05   -0.24093E-04    66   0.846E-02    0.567E-03
RMM:   2    -0.103367760775E+03   -0.40639E-06   -0.67631E-06    38   0.131E-02
  94 F= -.10356688E+03 E0= -.10356688E+03  d E =0.519810E-06
       N       E                     dE             d eps       ncg     rms          rms(c)
DAV:   1    -0.103367788592E+03   -0.28223E-04   -0.45692E-04    66   0.123E-01    0.539E-03
RMM:   2    -0.103367788921E+03   -0.32947E-06   -0.60175E-06    36   0.142E-02
  95 F= -.10356690E+03 E0= -.10356690E+03  d E =-.244218E-04
       N       E                     dE             d eps       ncg     rms          rms(c)
DAV:   1    -0.103367812285E+03   -0.23693E-04   -0.29195E-04    66   0.998E-02    0.523E-03
RMM:   2    -0.103367812361E+03   -0.75874E-07   -0.54104E-06    34   0.128E-02
  96 F= -.10356692E+03 E0= -.10356692E+03  d E =-.193643E-04
       N       E                     dE             d eps       ncg     rms          rms(c)
DAV:   1    -0.103367834339E+03   -0.22054E-04   -0.23981E-04    72   0.910E-02    0.490E-03
RMM:   2    -0.103367834482E+03   -0.14327E-06   -0.39688E-06    32   0.113E-02
  97 F= -.10356694E+03 E0= -.10356694E+03  d E =-.198760E-04
       N       E                     dE             d eps       ncg     rms          rms(c)
DAV:   1    -0.103367882489E+03   -0.48151E-04   -0.99927E-04    60   0.183E-01    0.853E-03
RMM:   2    -0.103367883029E+03   -0.53970E-06   -0.13932E-05    37   0.209E-02
  98 F= -.10356698E+03 E0= -.10356698E+03  d E =-.413880E-04
       N       E                     dE             d eps       ncg     rms          rms(c)
DAV:   1    -0.103367910155E+03   -0.27665E-04   -0.30632E-04    66   0.103E-01    0.564E-03
RMM:   2    -0.103367910276E+03   -0.12091E-06   -0.46390E-06    33   0.123E-02
  99 F= -.10356701E+03 E0= -.10356701E+03  d E =-.240569E-04
       N       E                     dE             d eps       ncg     rms          rms(c)
DAV:   1    -0.103367952539E+03   -0.42384E-04   -0.75322E-04    66   0.160E-01    0.728E-03
RMM:   2    -0.103367952973E+03   -0.43473E-06   -0.10016E-05    36   0.180E-02
 100 F= -.10356704E+03 E0= -.10356704E+03  d E =-.369038E-04
       N       E                     dE             d eps       ncg     rms          rms(c)
DAV:   1    -0.103368031424E+03   -0.78886E-04   -0.26330E-03    60   0.298E-01    0.134E-02
RMM:   2    -0.103368032915E+03   -0.14907E-05   -0.33811E-05    45   0.333E-02
 101 F= -.10356711E+03 E0= -.10356711E+03  d E =-.686871E-04
       N       E                     dE             d eps       ncg     rms          rms(c)
DAV:   1    -0.103368048739E+03   -0.17315E-04   -0.94466E-05    74   0.590E-02    0.435E-03
RMM:   2    -0.103368048675E+03    0.63430E-07   -0.13758E-06    32   0.681E-03
 102 F= -.10356713E+03 E0= -.10356713E+03  d E =-.139520E-04
       N       E                     dE             d eps       ncg     rms          rms(c)
DAV:   1    -0.103368054408E+03   -0.56698E-05   -0.12490E-05    50   0.215E-02    0.111E-03
RMM:   2    -0.103368054477E+03   -0.68896E-07   -0.48791E-07    25   0.471E-03
 103 F= -.10356713E+03 E0= -.10356713E+03  d E =-.491834E-05
       N       E                     dE             d eps       ncg     rms          rms(c)
DAV:   1    -0.103367970220E+03    0.84189E-04   -0.25997E-03    60   0.295E-01    0.124E-02
RMM:   2    -0.103367972109E+03   -0.18891E-05   -0.31422E-05    42   0.320E-02
 104 F= -.10356706E+03 E0= -.10356706E+03  d E =0.706234E-04
       N       E                     dE             d eps       ncg     rms          rms(c)
DAV:   1    -0.103368168398E+03   -0.19818E-03   -0.18116E-02    66   0.778E-01    0.319E-02
RMM:   2    -0.103368180214E+03   -0.11816E-04   -0.21157E-04    60   0.844E-02    0.190E-02
RMM:   3    -0.103368183766E+03   -0.35517E-05   -0.35490E-05    47   0.355E-02
 105 F= -.10356724E+03 E0= -.10356724E+03  d E =-.181561E-03
       N       E                     dE             d eps       ncg     rms          rms(c)
DAV:   1    -0.103368326558E+03   -0.14634E-03   -0.98546E-03    60   0.577E-01    0.251E-02
RMM:   2    -0.103368333075E+03   -0.65163E-05   -0.13145E-04    60   0.667E-02    0.156E-02
RMM:   3    -0.103368335460E+03   -0.23850E-05   -0.24531E-05    44   0.290E-02
 106 F= -.10356737E+03 E0= -.10356737E+03  d E =-.128508E-03
       N       E                     dE             d eps       ncg     rms          rms(c)
DAV:   1    -0.103368257369E+03    0.75706E-04   -0.25915E-03    66   0.295E-01    0.126E-02
RMM:   2    -0.103368258908E+03   -0.15397E-05   -0.28149E-05    42   0.304E-02
 107 F= -.10356731E+03 E0= -.10356731E+03  d E =0.643847E-04
       N       E                     dE             d eps       ncg     rms          rms(c)
DAV:   1    -0.103368298657E+03   -0.41288E-04   -0.73758E-04    60   0.155E-01    0.502E-03
RMM:   2    -0.103368299393E+03   -0.73670E-06   -0.81045E-06    39   0.166E-02
 108 F= -.10356734E+03 E0= -.10356734E+03  d E =-.349769E-04
