   18   18 5000    1
  0.1875000E+03  0.1500000E-08  0.1500000E-08  0.1500000E-08  0.1000000E-15
  1.000000000000000E-004
  CAR 
 unknown system                          
     50      1     35
 
  0.0000000E+00  0.0000000E+00  0.0000000E+00  0.1000000E+01
      1        -22.649695   1.000000
      2        -22.479386   1.000000
      3        -21.043414   1.000000
      4        -20.294086   1.000000
      5        -18.589765   1.000000
      6        -17.295438   1.000000
      7        -16.106901   1.000000
      8        -13.793709   1.000000
      9        -13.362573   1.000000
     10        -13.063492   1.000000
     11        -12.571566   1.000000
     12        -11.360472   1.000000
     13        -10.990056   1.000000
     14        -10.486569   1.000000
     15        -10.341781   1.000000
     16         -9.272304   1.000000
     17         -9.220197   1.000000
     18         -8.859646   1.000000
     19         -8.603876   1.000000
     20         -8.458911   1.000000
     21         -8.281066   1.000000
     22         -8.173892   1.000000
     23         -8.080928   1.000000
     24         -6.586422   1.000000
     25         -6.474222   1.000000
     26         -2.842988   0.000000
     27         -2.555796   0.000000
     28         -0.844228   0.000000
     29         -0.678177   0.000000
     30         -0.375317   0.000000
     31         -0.172098   0.000000
     32          0.055915   0.000000
     33          0.122528   0.000000
     34          0.297004   0.000000
     35          0.430700   0.000000
