unknown system                          
           1
    15.000000    0.000000    0.000000
     0.000000   15.000000    0.000000
     0.000000    0.000000   15.000000
   C    H    N 
     8     8     2
Direct configuration=     1
   0.38018062  0.52768379  0.58890899
   0.39164218  0.43912391  0.60391137
   0.48231773  0.40538986  0.60892683
   0.45557001  0.58602520  0.59532481
   0.51935142  0.53994977  0.50011611
   0.52260453  0.43827079  0.50238157
   0.60474767  0.58252501  0.51309656
   0.46409358  0.39036739  0.44236112
   0.34180628  0.39216996  0.58197533
   0.52896079  0.43964814  0.65162998
   0.48702017  0.33348506  0.62174751
   0.32444029  0.55256624  0.54990342
   0.50513083  0.57433829  0.64739643
   0.44000423  0.65820519  0.59472567
   0.48439776  0.56739959  0.44206845
   0.59066360  0.41183142  0.50425627
   0.66546101  0.62635574  0.53441987
   0.41219702  0.34356700  0.40770188
Direct configuration=     2
   0.37982004  0.52725637  0.58916281
   0.39139653  0.43950732  0.60366994
   0.48266311  0.40549691  0.60801092
   0.45639253  0.58572789  0.59443703
   0.51911588  0.54068492  0.50084813
   0.52217647  0.43793877  0.50392899
   0.60454020  0.58264161  0.51308835
   0.46411767  0.39020415  0.44246072
   0.34146032  0.39198141  0.58210821
   0.52911853  0.43987119  0.65199265
   0.48715730  0.33355404  0.62137258
   0.32401409  0.55259340  0.55018882
   0.50499061  0.57423208  0.64760480
   0.44031404  0.65793353  0.59417216
   0.48447182  0.56732922  0.44206852
   0.59072741  0.41189955  0.50395763
   0.66577774  0.62631961  0.53430462
   0.41234130  0.34373368  0.40748049
Direct configuration=     3
   0.37954379  0.52726559  0.58927851
   0.39115944  0.43946372  0.60345568
   0.48310893  0.40572981  0.60725857
   0.45708570  0.58535427  0.59356513
   0.51869875  0.54129178  0.50160608
   0.52180228  0.43757864  0.50530613
   0.60471864  0.58300306  0.51318396
   0.46426573  0.39018630  0.44269053
   0.34117923  0.39187483  0.58227339
   0.52914161  0.43997699  0.65223686
   0.48728542  0.33364293  0.62099819
   0.32362289  0.55259875  0.55053121
   0.50484575  0.57414308  0.64778072
   0.44063453  0.65764120  0.59362497
   0.48455866  0.56723814  0.44208065
   0.59071926  0.41200624  0.50368151
   0.66582455  0.62609346  0.53410725
   0.41240165  0.34381754  0.40719911
Direct configuration=     4
   0.37914946  0.52720743  0.58944032
   0.39081700  0.43946978  0.60310089
   0.48383823  0.40610039  0.60607832
   0.45823039  0.58473121  0.59209823
   0.51800053  0.54229520  0.50295244
   0.52124703  0.43702503  0.50752019
   0.60448597  0.58325021  0.51318138
   0.46431829  0.39000710  0.44299064
   0.34068475  0.39168048  0.58256104
   0.52912287  0.44011256  0.65261182
   0.48751659  0.33384714  0.62034320
   0.32293469  0.55262734  0.55113807
   0.50457155  0.57399937  0.64803808
   0.44121377  0.65710118  0.59267646
   0.48472107  0.56705894  0.44212342
   0.59065724  0.41222214  0.50323471
   0.66638194  0.62603815  0.53392837
   0.41270471  0.34413227  0.40684017
Direct configuration=     5
   0.37841234  0.52697170  0.58962942
   0.39016438  0.43956400  0.60224433
   0.48547696  0.40693123  0.60356923
   0.46088040  0.58321298  0.58859395
   0.51601183  0.54451583  0.50640968
   0.52008283  0.43580596  0.51236348
   0.60443319  0.58419516  0.51338743
   0.46455166  0.38979566  0.44408109
   0.33944099  0.39117642  0.58335456
   0.52886668  0.44030134  0.65341628
   0.48816188  0.33456436  0.61860120
   0.32116474  0.55276503  0.55276499
   0.50377147  0.57366204  0.64849849
   0.44281432  0.65557139  0.59020629
   0.48517651  0.56649353  0.44238346
   0.59032097  0.41289999  0.50221427
   0.66739404  0.62559585  0.53327864
   0.41345626  0.34487521  0.40584805
Direct configuration=     6
   0.37849830  0.52698340  0.58944476
   0.39021640  0.43950455  0.60223207
   0.48532321  0.40686150  0.60391505
   0.46073651  0.58320828  0.58872083
   0.51596550  0.54441499  0.50649900
   0.52024622  0.43595516  0.51192672
   0.60443472  0.58420969  0.51347705
   0.46449699  0.38987544  0.44430266
   0.33943645  0.39116541  0.58347200
   0.52873648  0.44023622  0.65336982
   0.48826107  0.33472763  0.61841828
   0.32109882  0.55281340  0.55289833
   0.50366615  0.57364454  0.64836643
   0.44299938  0.65538190  0.59002621
   0.48523841  0.56637506  0.44255418
   0.59018942  0.41303512  0.50224595
   0.66743511  0.62554021  0.53314167
   0.41356708  0.34494537  0.40580266
Direct configuration=     7
   0.37847555  0.52686200  0.58909756
   0.39015754  0.43944575  0.60199400
   0.48532278  0.40704152  0.60390119
   0.46097099  0.58275341  0.58820486
   0.51565274  0.54467242  0.50733683
   0.52018077  0.43612133  0.51230300
   0.60419870  0.58435149  0.51371311
   0.46435190  0.38992911  0.44492956
   0.33911324  0.39101855  0.58395543
   0.52842250  0.44017533  0.65357073
   0.48864603  0.33506349  0.61763391
   0.32049873  0.55296390  0.55363192
   0.50323570  0.57350814  0.64822248
   0.44380043  0.65470046  0.58895538
   0.48545776  0.56598228  0.44304295
   0.58996080  0.41349055  0.50206879
   0.66794805  0.62539858  0.53270380
   0.41411595  0.34537930  0.40551621
Direct configuration=     8
   0.37833829  0.52665124  0.58853724
   0.38997648  0.43932843  0.60156367
   0.48539880  0.40739161  0.60372486
   0.46140070  0.58194280  0.58725763
   0.51516189  0.54510227  0.50873134
   0.51999177  0.43637722  0.51320213
   0.60416875  0.58485208  0.51423902
   0.46430458  0.39018464  0.44611808
   0.33851722  0.39075339  0.58481768
   0.52789898  0.44010674  0.65400522
   0.48931898  0.33557443  0.61625727
   0.31941269  0.55322051  0.55494839
   0.50248719  0.57324392  0.64803810
   0.44519952  0.65356447  0.58701336
   0.48581651  0.56532142  0.44387997
   0.58961594  0.41429021  0.50173946
   0.66855428  0.62493815  0.53183113
   0.41492860  0.34600339  0.40486035
Direct configuration=     9
   0.37828541  0.52654179  0.58799712
   0.38988632  0.43915759  0.60140889
   0.48506713  0.40745895  0.60422521
   0.46095325  0.58167988  0.58747278
   0.51549682  0.54477825  0.50885875
   0.52017751  0.43696930  0.51282893
   0.60407671  0.58498862  0.51467056
   0.46414429  0.39044913  0.44677373
   0.33829765  0.39064062  0.58541924
   0.52749266  0.44002573  0.65426828
   0.48976791  0.33578376  0.61545175
   0.31888902  0.55341215  0.55573360
   0.50202217  0.57305560  0.64780425
   0.44603110  0.65303181  0.58583754
   0.48599380  0.56490377  0.44456709
   0.58942959  0.41486776  0.50173224
   0.66896336  0.62468946  0.53119251
   0.41556853  0.34644204  0.40456855
Direct configuration=    10
   0.37806393  0.52637920  0.58762050
   0.38970749  0.43903969  0.60126572
   0.48484205  0.40758480  0.60447411
   0.46057981  0.58134581  0.58751776
   0.51597686  0.54442791  0.50891516
   0.52029056  0.43749585  0.51281923
   0.60399560  0.58510022  0.51505818
   0.46408828  0.39077018  0.44726433
   0.33799593  0.39048723  0.58604790
   0.52712895  0.44000526  0.65469074
   0.49019276  0.33579850  0.61469178
   0.31827684  0.55360009  0.55658604
   0.50157761  0.57282885  0.64776153
   0.44678209  0.65274712  0.58458608
   0.48609951  0.56458061  0.44508770
   0.58938830  0.41539889  0.50170198
   0.66946420  0.62447288  0.53058114
   0.41619079  0.34686839  0.40422816
Direct configuration=    11
   0.37792984  0.52631519  0.58749266
   0.38962678  0.43896497  0.60128611
   0.48462960  0.40756845  0.60475626
   0.46018075  0.58131647  0.58778055
   0.51643559  0.54402088  0.50858936
   0.52046383  0.43782977  0.51250009
   0.60411778  0.58512835  0.51524105
   0.46409771  0.39100065  0.44731741
   0.33790341  0.39042868  0.58633572
   0.52696153  0.43999643  0.65491826
   0.49034127  0.33566207  0.61447014
   0.31805257  0.55368741  0.55694003
   0.50140903  0.57272058  0.64779069
   0.44698851  0.65284955  0.58410556
   0.48608089  0.56451263  0.44523977
   0.58946600  0.41559168  0.50177857
   0.66957717  0.62434874  0.53030395
   0.41645361  0.34703077  0.40411767
Direct configuration=    12
   0.37765011  0.52620816  0.58734495
   0.38943747  0.43883546  0.60123760
   0.48448229  0.40759824  0.60494700
   0.45992291  0.58112717  0.58772000
   0.51684601  0.54371132  0.50852574
   0.52064134  0.43816318  0.51249312
   0.60418724  0.58517638  0.51548402
   0.46417510  0.39136476  0.44749408
   0.33759335  0.39026855  0.58691135
   0.52664240  0.43998700  0.65537018
   0.49063590  0.33554316  0.61392912
   0.31744349  0.55384812  0.55773629
   0.50101904  0.57251805  0.64789337
   0.44749014  0.65281636  0.58305153
   0.48611168  0.56434775  0.44546522
   0.58956669  0.41594720  0.50178544
   0.67000875  0.62418186  0.52983597
   0.41695032  0.34738025  0.40381712
Direct configuration=    13
   0.37744305  0.52616217  0.58736242
   0.38930343  0.43875158  0.60125188
   0.48443063  0.40755573  0.60504322
   0.45982192  0.58109483  0.58762334
   0.51704724  0.54357920  0.50843513
   0.52080120  0.43826112  0.51250477
   0.60435524  0.58519314  0.51556553
   0.46428799  0.39161102  0.44742364
   0.33735646  0.39014619  0.58731366
   0.52641774  0.43996777  0.65569448
   0.49077122  0.33542004  0.61365542
   0.31699354  0.55394384  0.55831109
   0.50073623  0.57240244  0.64800968
   0.44772489  0.65286690  0.58239825
   0.48611870  0.56430321  0.44547332
   0.58971752  0.41609512  0.50180433
   0.67025194  0.62406516  0.52957391
   0.41726915  0.34762817  0.40363686
Direct configuration=    14
   0.37727358  0.52614575  0.58743284
   0.38919020  0.43868351  0.60127907
   0.48441674  0.40749815  0.60508350
   0.45978994  0.58109595  0.58748870
   0.51716189  0.54355739  0.50837753
   0.52094220  0.43826336  0.51255072
   0.60445284  0.58514710  0.51555754
   0.46449969  0.39186893  0.44734150
   0.33712796  0.39003492  0.58769067
   0.52620263  0.43992877  0.65597597
   0.49085411  0.33530972  0.61345625
   0.31656895  0.55401346  0.55887089
   0.50045586  0.57232892  0.64810962
   0.44788636  0.65291029  0.58184566
   0.48614033  0.56428758  0.44540973
   0.58988870  0.41617070  0.50181911
   0.67053364  0.62400480  0.52939226
   0.41748443  0.34781068  0.40341882
Direct configuration=    15
   0.37701666  0.52612433  0.58755754
   0.38901842  0.43858004  0.60134140
   0.48436269  0.40738963  0.60517311
   0.45968697  0.58112343  0.58732043
   0.51736804  0.54349319  0.50822178
   0.52120768  0.43829099  0.51256268
   0.60472755  0.58511478  0.51553574
   0.46477594  0.39219819  0.44707364
   0.33677192  0.38986742  0.58831597
   0.52584254  0.43984633  0.65641961
   0.49096334  0.33511059  0.61317817
   0.31589853  0.55411551  0.55980081
   0.49999567  0.57223336  0.64825619
   0.44810423  0.65301051  0.58098819
   0.48617886  0.56427714  0.44528006
   0.59019177  0.41626334  0.50186630
   0.67088430  0.62385240  0.52909510
   0.41790694  0.34818677  0.40314198
Direct configuration=    16
   0.37689996  0.52611034  0.58760282
   0.38893786  0.43853317  0.60136750
   0.48431668  0.40734110  0.60521894
   0.45961119  0.58112806  0.58724618
   0.51747943  0.54345689  0.50814673
   0.52134291  0.43832708  0.51254843
   0.60487134  0.58511307  0.51552236
   0.46494383  0.39236868  0.44697292
   0.33659841  0.38979442  0.58865199
   0.52564787  0.43978909  0.65663173
   0.49101516  0.33502031  0.61303733
   0.31556618  0.55416025  0.56030507
   0.49975184  0.57220224  0.64830590
   0.44821754  0.65303901  0.58055192
   0.48621565  0.56426057  0.44522958
   0.59033966  0.41631044  0.50189473
   0.67104772  0.62375568  0.52893591
   0.41811205  0.34837500  0.40297038
Direct configuration=    17
   0.37674974  0.52610601  0.58771096
   0.38883495  0.43847692  0.60142345
   0.48425746  0.40725103  0.60525779
   0.45951966  0.58117084  0.58712594
   0.51761403  0.54345214  0.50802166
   0.52154911  0.43833330  0.51251739
   0.60503187  0.58505852  0.51543055
   0.46523407  0.39259301  0.44675961
   0.33635866  0.38970499  0.58913788
   0.52536608  0.43968472  0.65691298
   0.49104100  0.33488235  0.61290461
   0.31510696  0.55420296  0.56105016
   0.49940056  0.57219682  0.64837087
   0.44830862  0.65309913  0.57999791
   0.48627901  0.56426464  0.44509389
   0.59058225  0.41631878  0.50194761
   0.67131353  0.62365318  0.52876353
   0.41837346  0.34863929  0.40271870
Direct configuration=    18
   0.37660489  0.52610119  0.58784305
   0.38873755  0.43842675  0.60149877
   0.48415032  0.40713703  0.60528914
   0.45937003  0.58123783  0.58699882
   0.51777945  0.54344440  0.50783710
   0.52181553  0.43835587  0.51241836
   0.60525527  0.58501840  0.51527500
   0.46560983  0.39279399  0.44645499
   0.33610739  0.38964331  0.58974126
   0.52501985  0.43951802  0.65719886
   0.49101204  0.33472320  0.61282286
   0.31460964  0.55422213  0.56199202
   0.49898709  0.57226076  0.64840707
   0.44833937  0.65316779  0.57942499
   0.48638752  0.56427691  0.44490845
   0.59088146  0.41627838  0.50203867
   0.67156403  0.62349695  0.52858492
   0.41868575  0.34898346  0.40240763
Direct configuration=    19
   0.37649820  0.52609611  0.58797321
   0.38867006  0.43839227  0.60157456
   0.48403897  0.40702870  0.60530375
   0.45922383  0.58131071  0.58688873
   0.51793843  0.54343638  0.50764069
   0.52205915  0.43836870  0.51228584
   0.60539170  0.58495458  0.51509161
   0.46601255  0.39297200  0.44619030
   0.33590831  0.38961971  0.59028171
   0.52471711  0.43934730  0.65741843
   0.49093432  0.33458052  0.61281466
   0.31420450  0.55421971  0.56284648
   0.49864005  0.57236837  0.64842196
   0.44829573  0.65324170  0.57899326
   0.48650048  0.56429901  0.44471937
   0.59115389  0.41620469  0.50214060
   0.67181001  0.62338307  0.52846758
   0.41891323  0.34925921  0.40208346
Direct configuration=    20
   0.37635775  0.52608665  0.58815773
   0.38858436  0.43834626  0.60168367
   0.48387406  0.40687479  0.60532276
   0.45901093  0.58141570  0.58673696
   0.51816206  0.54341202  0.50734681
   0.52241271  0.43839265  0.51208773
   0.60564624  0.58491003  0.51483794
   0.46652598  0.39314733  0.44574975
   0.33563984  0.38960209  0.59104221
   0.52429715  0.43909915  0.65771149
   0.49079828  0.33438023  0.61283155
   0.31365299  0.55420917  0.56405273
   0.49816806  0.57254497  0.64843446
   0.44820026  0.65335018  0.57842092
   0.48666573  0.56433169  0.44444925
   0.59153654  0.41609003  0.50229594
   0.67208719  0.62318811  0.52830261
   0.41928627  0.34969935  0.40166801
Direct configuration=    21
   0.37633365  0.52608396  0.58824777
   0.38857925  0.43833994  0.60173983
   0.48379078  0.40680376  0.60531925
   0.45891524  0.58147774  0.58668635
   0.51825858  0.54339330  0.50718163
   0.52256305  0.43838749  0.51195220
   0.60574313  0.58490856  0.51469694
   0.46677825  0.39317072  0.44554622
   0.33557203  0.38964174  0.59133211
   0.52415115  0.43897482  0.65777560
   0.49065727  0.33429971  0.61294171
   0.31350078  0.55417707  0.56452977
   0.49802916  0.57269326  0.64841520
   0.44804686  0.65341115  0.57832218
   0.48674986  0.56436026  0.44431143
   0.59169361  0.41599380  0.50238970
   0.67215329  0.62311131  0.52828668
   0.41940146  0.34985799  0.40146771
Direct configuration=    22
   0.37622299  0.52607515  0.58845935
   0.38852116  0.43830435  0.60186687
   0.48360731  0.40663305  0.60533430
   0.45869172  0.58160774  0.58654152
   0.51850639  0.54335930  0.50682605
   0.52293510  0.43838876  0.51169012
   0.60594627  0.58485149  0.51438991
   0.46737197  0.39332076  0.44507846
   0.33533224  0.38966860  0.59209374
   0.52374868  0.43869876  0.65802777
   0.49041896  0.33408820  0.61307224
   0.31300019  0.55414103  0.56575591
   0.49760452  0.57295721  0.64840770
   0.44782020  0.65354612  0.57786940
   0.48693410  0.56441121  0.44399991
   0.59209401  0.41582604  0.50258373
   0.67244364  0.62294581  0.52817967
   0.41973986  0.35027534  0.40098504
Direct configuration=    23
   0.37617725  0.52607208  0.58868932
   0.38851500  0.43829161  0.60200980
   0.48341509  0.40645376  0.60535031
   0.45847716  0.58176575  0.58643508
   0.51875093  0.54331261  0.50641328
   0.52329936  0.43835371  0.51136176
   0.60614973  0.58484502  0.51405314
   0.46796339  0.39334827  0.44456229
   0.33517356  0.38976759  0.59275095
   0.52343146  0.43841198  0.65818209
   0.49002915  0.33388382  0.61338872
   0.31266013  0.55406369  0.56684675
   0.49732032  0.57333957  0.64836587
   0.44739355  0.65370411  0.57768252
   0.48712626  0.56448608  0.44366035
   0.59247558  0.41559134  0.50281896
   0.67262578  0.62280434  0.52816760
   0.42003896  0.35065046  0.40049669
Direct configuration=    24
   0.37619017  0.52607632  0.58885451
   0.38853788  0.43829775  0.60211459
   0.48329248  0.40632967  0.60538254
   0.45835279  0.58188656  0.58640204
   0.51891415  0.54328268  0.50611998
   0.52352413  0.43829739  0.51111827
   0.60623908  0.58484765  0.51382043
   0.46837555  0.39333204  0.44423848
   0.33511273  0.38986372  0.59308657
   0.52329270  0.43823379  0.65823931
   0.48967750  0.33374892  0.61371464
   0.31253705  0.55399488  0.56742985
   0.49723781  0.57365235  0.64832646
   0.44699326  0.65382040  0.57772039
   0.48724531  0.56454931  0.44342572
   0.59271447  0.41540852  0.50299022
   0.67272859  0.62277113  0.52822650
   0.42018730  0.35082599  0.40014038
Direct configuration=    25
   0.37622068  0.52608108  0.58884942
   0.38855547  0.43830705  0.60211281
   0.48330614  0.40633716  0.60539541
   0.45837601  0.58188748  0.58643221
   0.51889426  0.54328434  0.50613261
   0.52349752  0.43828390  0.51112879
   0.60624551  0.58487741  0.51384324
   0.46830688  0.39326844  0.44423544
   0.33514888  0.38987635  0.59298573
   0.52335518  0.43825781  0.65820286
   0.48964325  0.33376093  0.61376818
   0.31261906  0.55398901  0.56727907
   0.49731954  0.57366604  0.64832154
   0.44694674  0.65381793  0.57782999
   0.48722910  0.56455290  0.44343927
   0.59268429  0.41540538  0.50298539
   0.67266625  0.62279473  0.52826002
   0.42018143  0.35079543  0.40018714
Direct configuration=    26
   0.37624520  0.52608580  0.58890334
   0.38857420  0.43831492  0.60214753
   0.48327336  0.40629988  0.60541637
   0.45834923  0.58192925  0.58644174
   0.51893952  0.54327752  0.50604274
   0.52355469  0.43825427  0.51105316
   0.60625847  0.58488390  0.51377533
   0.46842404  0.39324276  0.44414357
   0.33514870  0.38991460  0.59303345
   0.52334800  0.43821380  0.65820192
   0.48950301  0.33372117  0.61391277
   0.31262587  0.55396353  0.56737836
   0.49734329  0.57377874  0.64830612
   0.44678333  0.65385601  0.57790880
   0.48725819  0.56457653  0.44336723
   0.59274784  0.41534172  0.50303895
   0.67268162  0.62281145  0.52830526
   0.42021361  0.35082025  0.40007975
Direct configuration=    27
   0.37660162  0.52616355  0.58944680
   0.38881619  0.43842278  0.60250514
   0.48300835  0.40594975  0.60570068
   0.45818293  0.58236486  0.58666908
   0.51929864  0.54322547  0.50520607
   0.52402198  0.43790991  0.51036481
   0.60647864  0.58507791  0.51319615
   0.46934214  0.39276681  0.44320711
   0.33526859  0.39032942  0.59310502
   0.52352245  0.43787597  0.65807747
   0.48797510  0.33335596  0.61557207
   0.31298602  0.55369905  0.56777344
   0.49790280  0.57494193  0.64814508
   0.44498668  0.65423116  0.57908839
   0.48748492  0.56482305  0.44268673
   0.59328274  0.41469580  0.50353739
   0.67256245  0.62307051  0.52887599
   0.42052179  0.35092867  0.39915943
Direct configuration=    28
   0.37653059  0.52615205  0.58936216
   0.38876566  0.43840299  0.60244865
   0.48305409  0.40599982  0.60566601
   0.45821001  0.58229905  0.58663483
   0.51924246  0.54324083  0.50535630
   0.52395300  0.43797480  0.51049903
   0.60642643  0.58502297  0.51329210
   0.46916601  0.39284439  0.44333901
   0.33523204  0.39024806  0.59309991
   0.52348257  0.43793473  0.65812194
   0.48824846  0.33341343  0.61528045
   0.31289897  0.55375109  0.56772226
   0.49779449  0.57472950  0.64817994
   0.44531632  0.65416569  0.57884615
   0.48744850  0.56477631  0.44279667
   0.59320167  0.41481328  0.50344249
   0.67261133  0.62304410  0.52877389
   0.42051869  0.35093920  0.39932870
Direct configuration=    29
   0.37659284  0.52616948  0.58946021
   0.38880577  0.43842203  0.60251329
   0.48301235  0.40593702  0.60572839
   0.45818687  0.58237886  0.58668628
   0.51930142  0.54323569  0.50522035
   0.52402796  0.43791159  0.51038996
   0.60646162  0.58505252  0.51319826
   0.46933880  0.39278309  0.44320188
   0.33525124  0.39031569  0.59308775
   0.52352279  0.43788394  0.65810767
   0.48798490  0.33334884  0.61557671
   0.31296599  0.55370899  0.56775867
   0.49790521  0.57492344  0.64815692
   0.44501074  0.65423012  0.57905031
   0.48748486  0.56481600  0.44267921
   0.59329277  0.41470606  0.50351928
   0.67258806  0.62310639  0.52887807
   0.42056593  0.35093434  0.39915337
Direct configuration=    30
   0.37662721  0.52618513  0.58952812
   0.38882633  0.43843170  0.60255858
   0.48298664  0.40589363  0.60578324
   0.45817237  0.58243407  0.58672766
   0.51933726  0.54323446  0.50513892
   0.52408182  0.43787500  0.51033406
   0.60650996  0.58507957  0.51314788
   0.46942294  0.39273048  0.44308997
   0.33525669  0.39035364  0.59307065
   0.52354803  0.43785434  0.65811325
   0.48782158  0.33330356  0.61576975
   0.31300168  0.55368615  0.56777428
   0.49797750  0.57503916  0.64814841
   0.44482772  0.65427205  0.57916305
   0.48750919  0.56483712  0.44260229
   0.59335485  0.41464310  0.50355917
   0.67255479  0.62314630  0.52893710
   0.42064119  0.35095327  0.39905974
Direct configuration=    31
   0.37666672  0.52620102  0.58960582
   0.38884983  0.43844450  0.60261040
   0.48295619  0.40584429  0.60584602
   0.45815479  0.58249666  0.58677478
   0.51938479  0.54323393  0.50504442
   0.52414104  0.43783137  0.51026386
   0.60652300  0.58508840  0.51308058
   0.46954864  0.39269281  0.44298821
   0.33526451  0.39039863  0.59305098
   0.52357690  0.43781951  0.65811889
   0.48763306  0.33325217  0.61599317
   0.31304486  0.55365906  0.56779228
   0.49806078  0.57517366  0.64813839
   0.44461601  0.65432064  0.57929569
   0.48753828  0.56486160  0.44251456
   0.59342548  0.41457014  0.50360534
   0.67255173  0.62321248  0.52901400
   0.42070232  0.35095375  0.39892913
Direct configuration=    32
   0.37742227  0.52650239  0.59110170
   0.38929505  0.43869538  0.60361117
   0.48235927  0.40489784  0.60707351
   0.45780337  0.58369811  0.58769327
   0.52026072  0.54318848  0.50322014
   0.52530906  0.43701991  0.50894117
   0.60716114  0.58548346  0.51187850
   0.47174278  0.39177659  0.44082740
   0.33541941  0.39127039  0.59265947
   0.52412843  0.43714741  0.65824426
   0.48401154  0.33226839  0.62030609
   0.31388417  0.55313699  0.56812854
   0.49966365  0.57776056  0.64795177
   0.44055754  0.65525619  0.58184506
   0.48810912  0.56532287  0.44083532
   0.59478254  0.41317517  0.50448299
   0.67215933  0.62430922  0.53041045
   0.42210581  0.35113370  0.39658672
Direct configuration=    33
   0.37723901  0.52643863  0.59077394
   0.38917726  0.43863641  0.60339668
   0.48247890  0.40507727  0.60686142
   0.45785755  0.58345845  0.58752523
   0.52009267  0.54317677  0.50363070
   0.52506589  0.43721729  0.50923787
   0.60704567  0.58541320  0.51217017
   0.47128741  0.39201606  0.44134183
   0.33537875  0.39108078  0.59273004
   0.52399170  0.43729088  0.65826012
   0.48482631  0.33251126  0.61936992
   0.31369372  0.55325471  0.56804647
   0.49929970  0.57718177  0.64799859
   0.44149490  0.65502939  0.58125299
   0.48801144  0.56519945  0.44121196
   0.59448181  0.41350855  0.50425753
   0.67222451  0.62408221  0.53007689
   0.42185362  0.35109077  0.39705805
Direct configuration=    34
   0.37732259  0.52647742  0.59095579
   0.38922343  0.43866476  0.60352189
   0.48239739  0.40495892  0.60704175
   0.45780219  0.58360694  0.58765496
   0.52021631  0.54316111  0.50341443
   0.52521548  0.43713202  0.50908205
   0.60710537  0.58545183  0.51203250
   0.47154960  0.39191233  0.44108635
   0.33539280  0.39118626  0.59267172
   0.52404899  0.43720745  0.65830196
   0.48440053  0.33239931  0.61990094
   0.31379139  0.55319360  0.56807937
   0.49948649  0.57748762  0.64798283
   0.44102991  0.65513827  0.58154408
   0.48809719  0.56524243  0.44101458
   0.59464595  0.41335467  0.50434407
   0.67219253  0.62424091  0.53023887
   0.42207135  0.35112276  0.39676491
Direct configuration=    35
   0.37731581  0.52648281  0.59096942
   0.38921550  0.43866415  0.60353759
   0.48237629  0.40494951  0.60710614
   0.45777689  0.58361888  0.58769467
   0.52024870  0.54314164  0.50340568
   0.52523740  0.43714691  0.50907642
   0.60712279  0.58546289  0.51204711
   0.47157456  0.39192954  0.44109154
   0.33538510  0.39119221  0.59264960
   0.52403639  0.43719883  0.65835089
   0.48439423  0.33239916  0.61995159
   0.31379048  0.55319303  0.56806778
   0.49948557  0.57749474  0.64799531
   0.44104253  0.65514223  0.58153391
   0.48813063  0.56522396  0.44101056
   0.59465808  0.41336886  0.50431567
   0.67218033  0.62427311  0.53022690
   0.42215243  0.35113167  0.39672115
Direct configuration=    36
   0.37736874  0.52653426  0.59118918
   0.38923009  0.43869285  0.60371287
   0.48223184  0.40481591  0.60748643
   0.45764581  0.58379342  0.58794437
   0.52047545  0.54306398  0.50316537
   0.52545005  0.43711534  0.50889993
   0.60721660  0.58552138  0.51195702
   0.47192840  0.39190628  0.44087940
   0.33537468  0.39131191  0.59252261
   0.52404881  0.43709693  0.65856151
   0.48397425  0.33228350  0.62062683
   0.31388008  0.55313258  0.56805737
   0.49965521  0.57780363  0.64803520
   0.44064350  0.65527092  0.58178421
   0.48832514  0.56520647  0.44080722
   0.59485979  0.41326659  0.50430083
   0.67212714  0.62454118  0.53034710
   0.42259722  0.35116817  0.39627938
Direct configuration=    37
   0.37734509  0.52652988  0.59115730
   0.38921517  0.43868580  0.60369666
   0.48223845  0.40484005  0.60748225
   0.45764559  0.58376572  0.58793709
   0.52046820  0.54305675  0.50320360
   0.52543433  0.43714416  0.50892800
   0.60721420  0.58551716  0.51199279
   0.47185849  0.39191604  0.44090793
   0.33536762  0.39129190  0.59252315
   0.52402802  0.43711398  0.65858566
   0.48406418  0.33230325  0.62054464
   0.31385744  0.55314469  0.56804016
   0.49960952  0.57773816  0.64805411
   0.44074998  0.65525639  0.58172239
   0.48832667  0.56518879  0.44084371
   0.59483515  0.41330454  0.50426379
   0.67213054  0.62452859  0.53030717
   0.42261589  0.35118355  0.39634140
Direct configuration=    38
   0.37735245  0.52653880  0.59119146
   0.38921708  0.43868987  0.60372566
   0.48221578  0.40481962  0.60754450
   0.45762456  0.58379368  0.58797784
   0.52050563  0.54304262  0.50316284
   0.52546895  0.43713898  0.50889511
   0.60723998  0.58553096  0.51198037
   0.47192318  0.39192091  0.44088116
   0.33536553  0.39131030  0.59250231
   0.52402756  0.43710004  0.65862511
   0.48399925  0.33228347  0.62065584
   0.31387041  0.55313461  0.56803499
   0.49963159  0.57778414  0.64806647
   0.44068787  0.65528025  0.58176602
   0.48835984  0.56518632  0.44080883
   0.59486963  0.41328699  0.50425762
   0.67211602  0.62457046  0.53032433
   0.42268041  0.35118240  0.39626518
Direct configuration=    39
   0.37734996  0.52654394  0.59121001
   0.38921332  0.43869186  0.60374519
   0.48219948  0.40481116  0.60759535
   0.45760718  0.58380796  0.58800955
   0.52053693  0.54303081  0.50314113
   0.52549387  0.43714421  0.50887674
   0.60724349  0.58553084  0.51197665
   0.47195430  0.39192715  0.44086593
   0.33536193  0.39131881  0.59248582
   0.52402043  0.43709476  0.65866560
   0.48397530  0.33227380  0.62072139
   0.31387386  0.55313024  0.56802478
   0.49963425  0.57780045  0.64808392
   0.44067109  0.65529558  0.58178371
   0.48838814  0.56517960  0.44079060
   0.59489074  0.41328412  0.50424012
   0.67211946  0.62460921  0.53032940
   0.42273714  0.35118467  0.39622172
Direct configuration=    40
   0.37734883  0.52655614  0.59125233
   0.38920818  0.43869630  0.60378799
   0.48216497  0.40478952  0.60770183
   0.45757076  0.58384200  0.58807691
   0.52059951  0.54300520  0.50308930
   0.52554867  0.43715161  0.50883446
   0.60728173  0.58554866  0.51197145
   0.47201878  0.39193107  0.44082119
   0.33535529  0.39133915  0.59245130
   0.52400760  0.43708197  0.65874749
   0.48391319  0.33225130  0.62087032
   0.31388379  0.55311918  0.56800471
   0.49964448  0.57784248  0.64811866
   0.44062150  0.65532981  0.58183064
   0.48844723  0.56516812  0.44074741
   0.59493844  0.41327239  0.50420791
   0.67210238  0.62467759  0.53033902
   0.42286095  0.35119467  0.39613196
Direct configuration=    41
   0.37734474  0.52657177  0.59130029
   0.38920054  0.43870085  0.60383984
   0.48212326  0.40476502  0.60783663
   0.45752446  0.58388245  0.58816240
   0.52068122  0.54297281  0.50302727
   0.52561405  0.43716223  0.50877876
   0.60731657  0.58556161  0.51196465
   0.47211613  0.39195896  0.44079145
   0.33534614  0.39136166  0.59240783
   0.52398645  0.43707001  0.65885676
   0.48384815  0.33222656  0.62105058
   0.31389273  0.55310623  0.56797377
   0.49964661  0.57788384  0.64816863
   0.44057377  0.65537226  0.58188678
   0.48852388  0.56515242  0.44069559
   0.59499661  0.41326097  0.50415910
   0.67209482  0.62477198  0.53035039
   0.42299563  0.35118954  0.39600819
Direct configuration=    42
   0.37733245  0.52670121  0.59172508
   0.38915146  0.43874580  0.60427894
   0.48177421  0.40454298  0.60893908
   0.45714765  0.58423747  0.58886395
   0.52134761  0.54271692  0.50248622
   0.52618111  0.43723483  0.50832114
   0.60764058  0.58569546  0.51188449
   0.47281388  0.39203522  0.44036067
   0.33527970  0.39156660  0.59205573
   0.52383882  0.43695390  0.65971723
   0.48322626  0.33200389  0.62259643
   0.31398992  0.55298883  0.56774539
   0.49971601  0.57829077  0.64855218
   0.44007580  0.65573139  0.58240124
   0.48914477  0.56504197  0.44023786