<?xml version="1.0" encoding="ISO-8859-1"?>
<modeling>
 <generator>
  <i name="program" type="string">vasp </i>
  <i name="version" type="string">6.3.2  </i>
  <i name="subversion" type="string">27Jun22 (build Oct 05 2023 17:59:42) gamma-only                       parallel </i>
  <i name="platform" type="string">LinuxIFC </i>
  <i name="date" type="string">2024 04 09 </i>
  <i name="time" type="string">10:49:28 </i>
 </generator>
 <incar>
  <i type="string" name="PREC">NORMAL</i>
  <i type="string" name="ALGO">Fast</i>
  <i type="int" name="ISPIN">     1</i>
  <i type="int" name="IBRION">     1</i>
  <i name="EDIFF">      0.00001000</i>
  <i name="EDIFFG">     -0.05000000</i>
  <i type="int" name="NSW">  5000</i>
  <i name="ENCUT">    400.00000000</i>
  <i name="POTIM">      0.10000000</i>
  <i type="int" name="ISMEAR">     0</i>
  <i name="SIGMA">      0.05000000</i>
  <i type="logical" name="LWAVE"> F  </i>
  <i type="logical" name="LCHARG"> F  </i>
  <i type="string" name="GGA">PE</i>
  <i type="int" name="IVDW">    11</i>
  <i name="SPRING">     -5.00000000</i>
 </incar>
 <primitive_cell>
  <structure name="primitive_cell" >
   <crystal>
    <varray name="basis" >
     <v>      15.00000000       0.00000000       0.00000000 </v>
     <v>       0.00000000      15.00000000       0.00000000 </v>
     <v>       0.00000000       0.00000000      15.00000000 </v>
    </varray>
    <i name="volume">   3375.00000000 </i>
    <varray name="rec_basis" >
     <v>       0.06666667       0.00000000       0.00000000 </v>
     <v>       0.00000000       0.06666667       0.00000000 </v>
     <v>       0.00000000       0.00000000       0.06666667 </v>
    </varray>
   </crystal>
   <varray name="positions" >
    <v>       0.37561317       0.54382960       0.57981179 </v>
    <v>       0.37339161       0.45466637       0.57269007 </v>
    <v>       0.45492523       0.40061631       0.55552235 </v>
    <v>       0.46164359       0.59300129       0.58591402 </v>
    <v>       0.53453116       0.54427607       0.53351625 </v>
    <v>       0.54147163       0.45077239       0.57567193 </v>
    <v>       0.61500119       0.59840264       0.53719320 </v>
    <v>       0.61425970       0.39519430       0.54342913 </v>
    <v>       0.30997742       0.41903705       0.57328778 </v>
    <v>       0.45328136       0.33773946       0.59213243 </v>
    <v>       0.45849685       0.38123585       0.48527923 </v>
    <v>       0.31391263       0.58184194       0.58597603 </v>
    <v>       0.48611563       0.59660745       0.65479481 </v>
    <v>       0.45420902       0.66210257       0.56488526 </v>
    <v>       0.51808992       0.53725577       0.46294681 </v>
    <v>       0.55223351       0.45841139       0.64717257 </v>
    <v>       0.66967604       0.65308522       0.54425663 </v>
    <v>       0.66174933       0.34027148       0.51593986 </v>
   </varray>
  </structure>
  <varray name="primitive_index" >
   <v type="int" >        1 </v>
   <v type="int" >        2 </v>
   <v type="int" >        3 </v>
   <v type="int" >        4 </v>
   <v type="int" >        5 </v>
   <v type="int" >        6 </v>
   <v type="int" >        7 </v>
   <v type="int" >        8 </v>
   <v type="int" >        9 </v>
   <v type="int" >       10 </v>
   <v type="int" >       11 </v>
   <v type="int" >       12 </v>
   <v type="int" >       13 </v>
   <v type="int" >       14 </v>
   <v type="int" >       15 </v>
   <v type="int" >       16 </v>
   <v type="int" >       17 </v>
   <v type="int" >       18 </v>
  </varray>
 </primitive_cell>
 <kpoints>
  <generation param="Monkhorst-Pack">
   <v type="int" name="divisions">       1        1        1 </v>
   <v name="usershift">      0.00000000       0.00000000       0.00000000 </v>
   <v name="genvec1">      1.00000000       0.00000000       0.00000000 </v>
   <v name="genvec2">      0.00000000       1.00000000       0.00000000 </v>
   <v name="genvec3">      0.00000000       0.00000000       1.00000000 </v>
   <v name="shift">      0.00000000       0.00000000       0.00000000 </v>
  </generation>
  <varray name="kpointlist" >
   <v>       0.00000000       0.00000000       0.00000000 </v>
  </varray>
  <varray name="weights" >
   <v>       1.00000000 </v>
  </varray>
 </kpoints>
 <parameters>
  <separator name="general" >
   <i type="string" name="SYSTEM">unknown system</i>
   <i type="logical" name="LCOMPAT"> F  </i>
  </separator>
  <separator name="electronic" >
   <i type="string" name="PREC">normal</i>
   <i name="ENMAX">    400.00000000</i>
   <i name="ENAUG">    644.87300000</i>
   <i name="EDIFF">      0.00001000</i>
   <i type="int" name="IALGO">    68</i>
   <i type="int" name="IWAVPR">    11</i>
   <i type="int" name="NBANDS">    35</i>
   <i type="int" name="NBANDSLOW">    -1</i>
   <i type="int" name="NBANDSHIGH">    -1</i>
   <i name="NELECT">     50.00000000</i>
   <i type="int" name="TURBO">     0</i>
   <i type="int" name="IRESTART">     0</i>
   <i type="int" name="NREBOOT">     0</i>
   <i type="int" name="NMIN">     0</i>
   <i name="EREF">      0.00000000</i>
   <separator name="electronic smearing" >
    <i type="int" name="ISMEAR">     0</i>
    <i name="SIGMA">      0.05000000</i>
    <i name="KSPACING">      0.50000000</i>
    <i type="logical" name="KGAMMA"> T  </i>
    <i type="logical" name="KBLOWUP"> T  </i>
   </separator>
   <separator name="electronic projectors" >
    <i type="logical" name="LREAL"> F  </i>
    <v name="ROPT">      0.00000000      0.00000000      0.00000000</v>
    <i type="int" name="LMAXPAW">  -100</i>
    <i type="int" name="LMAXMIX">     2</i>
    <i type="logical" name="NLSPLINE"> F  </i>
   </separator>
   <separator name="electronic startup" >
    <i type="int" name="ISTART">     0</i>
    <i type="int" name="ICHARG">     2</i>
    <i type="int" name="INIWAV">     1</i>
   </separator>
   <separator name="electronic spin" >
    <i type="int" name="ISPIN">     1</i>
    <i type="logical" name="LNONCOLLINEAR"> F  </i>
    <v name="MAGMOM">      1.00000000      1.00000000      1.00000000      1.00000000      1.00000000      1.00000000      1.00000000      1.00000000      1.00000000      1.00000000      1.00000000      1.00000000      1.00000000      1.00000000      1.00000000      1.00000000      1.00000000      1.00000000</v>
    <i name="NUPDOWN">     -1.00000000</i>
    <i type="logical" name="LSORBIT"> F  </i>
    <v name="SAXIS">      0.00000000      0.00000000      1.00000000</v>
    <i type="logical" name="LSPIRAL"> F  </i>
    <v name="QSPIRAL">      0.00000000      0.00000000      0.00000000</v>
    <i type="logical" name="LZEROZ"> F  </i>
   </separator>
   <separator name="electronic exchange-correlation" >
    <i type="logical" name="LASPH"> F  </i>
    <i type="logical" name="LMETAGGA"> F  </i>
   </separator>
   <separator name="electronic convergence" >
    <i type="int" name="NELM">    60</i>
    <i type="int" name="NELMDL">    -5</i>
    <i type="int" name="NELMIN">     2</i>
    <i name="ENINI">    400.00000000</i>
    <separator name="electronic convergence detail" >
     <i type="logical" name="LDIAG"> T  </i>
     <i type="logical" name="LSUBROT"> F  </i>
     <i name="WEIMIN">      0.00100000</i>
     <i name="EBREAK">      0.00000007</i>
     <i name="DEPER">      0.30000000</i>
     <i type="int" name="NRMM">     4</i>
     <i name="TIME">      0.40000000</i>
    </separator>
   </separator>
   <separator name="electronic mixer" >
    <i name="AMIX">      0.40000000</i>
    <i name="BMIX">      1.00000000</i>
    <i name="AMIN">      0.10000000</i>
    <i name="AMIX_MAG">      1.60000000</i>
    <i name="BMIX_MAG">      1.00000000</i>
    <separator name="electronic mixer details" >
     <i type="int" name="IMIX">     4</i>
     <i type="logical" name="MIXFIRST"> F  </i>
     <i type="int" name="MAXMIX">   -45</i>
     <i name="WC">    100.00000000</i>
     <i type="int" name="INIMIX">     1</i>
     <i type="int" name="MIXPRE">     1</i>
     <i type="int" name="MREMOVE">     5</i>
    </separator>
   </separator>
   <separator name="electronic dipolcorrection" >
    <i type="logical" name="LDIPOL"> F  </i>
    <i type="logical" name="LMONO"> F  </i>
    <i type="int" name="IDIPOL">     0</i>
    <i name="EPSILON">      1.00000000</i>
    <v name="DIPOL">   -100.00000000   -100.00000000   -100.00000000</v>
    <i name="EFIELD">      0.00000000</i>
   </separator>
  </separator>
  <separator name="grids" >
   <i type="int" name="NGX">    80</i>
   <i type="int" name="NGY">    80</i>
   <i type="int" name="NGZ">    80</i>
   <i type="int" name="NGXF">   160</i>
   <i type="int" name="NGYF">   160</i>
   <i type="int" name="NGZF">   160</i>
   <i type="logical" name="ADDGRID"> F  </i>
  </separator>
  <separator name="ionic" >
   <i type="int" name="NSW">  5000</i>
   <i type="int" name="IBRION">     1</i>
   <i type="int" name="MDALGO">     0</i>
   <i type="int" name="ISIF">     2</i>
   <i name="PSTRESS">      0.00000000</i>
   <i name="EDIFFG">     -0.05000000</i>
   <i type="int" name="NFREE">     0</i>
   <i name="POTIM">      0.10000000</i>
   <i name="SMASS">     -3.00000000</i>
   <i name="SCALEE">      1.00000000</i>
  </separator>
  <separator name="ionic md" >
   <i name="TEBEG">      0.00010000</i>
   <i name="TEEND">      0.00010000</i>
   <i type="int" name="NBLOCK">     1</i>
   <i type="int" name="KBLOCK">  5000</i>
   <i type="int" name="NPACO">   256</i>
   <i name="APACO">     10.00000000</i>
  </separator>
  <separator name="symmetry" >
   <i type="int" name="ISYM">     2</i>
   <i name="SYMPREC">      0.00001000</i>
  </separator>
  <separator name="dos" >
   <i type="int" name="LORBIT">     0</i>
   <v name="RWIGS">     -1.00000000     -1.00000000     -1.00000000</v>
   <i type="int" name="NEDOS">   301</i>
   <i name="EMIN">     10.00000000</i>
   <i name="EMAX">    -10.00000000</i>
   <i name="EFERMI">      0.00000000</i>
  </separator>
  <separator name="writing" >
   <i type="int" name="NWRITE">     2</i>
   <i type="logical" name="LWAVE"> F  </i>
   <i type="logical" name="LDOWNSAMPLE"> F  </i>
   <i type="logical" name="LCHARG"> F  </i>
   <i type="logical" name="LPARD"> F  </i>
   <i type="logical" name="LVTOT"> F  </i>
   <i type="logical" name="LVHAR"> F  </i>
   <i type="logical" name="LELF"> F  </i>
   <i type="logical" name="LOPTICS"> F  </i>
   <v name="STM">      0.00000000      0.00000000      0.00000000      0.00000000      0.00000000      0.00000000      0.00000000</v>
  </separator>
  <separator name="performance" >
   <i type="int" name="NPAR">     1</i>
   <i type="int" name="NSIM">     4</i>
   <i type="int" name="NBLK">    -1</i>
   <i type="logical" name="LPLANE"> T  </i>
   <i type="logical" name="LSCALAPACK"> T  </i>
   <i type="logical" name="LSCAAWARE"> F  </i>
   <i type="logical" name="LSCALU"> F  </i>
   <i type="logical" name="LASYNC"> F  </i>
   <i type="logical" name="LORBITALREAL"> F  </i>
  </separator>
  <separator name="miscellaneous" >
   <i type="int" name="IDIOT">     3</i>
   <i type="int" name="PHON_NSTRUCT">    -1</i>
   <i type="logical" name="LMUSIC"> F  </i>
   <v name="POMASS">     12.01100000      1.00000000     14.00100000</v>
   <v name="DARWINR">      0.00000000      0.00000000      0.00000000</v>
   <v name="DARWINV">      1.00000000      1.00000000      1.00000000</v>
   <i type="logical" name="LCORR"> T  </i>
  </separator>
  <i type="logical" name="GGA_COMPAT"> T  </i>
  <i type="logical" name="LBERRY"> F  </i>
  <i type="int" name="ICORELEVEL">     0</i>
  <i type="logical" name="LDAU"> F  </i>
  <i type="int" name="I_CONSTRAINED_M">     0</i>
  <separator name="electronic exchange-correlation" >
   <i type="string" name="GGA">PE</i>
   <i type="int" name="VOSKOWN">     0</i>
   <i type="logical" name="LHFCALC"> F  </i>
   <i type="string" name="PRECFOCK"></i>
   <i type="logical" name="LSYMGRAD"> F  </i>
   <i type="logical" name="LHFONE"> F  </i>
   <i type="logical" name="LRHFCALC"> F  </i>
   <i type="logical" name="LTHOMAS"> F  </i>
   <i type="logical" name="LMODELHF"> F  </i>
   <i type="logical" name="LFOCKACE"> F  </i>
   <i name="ENCUT4O">     -1.00000000</i>
   <i type="int" name="EXXOEP">     0</i>
   <i type="int" name="FOURORBIT">     0</i>
   <i name="AEXX">      0.00000000</i>
   <i name="HFALPHA">      0.00000000</i>
   <i name="MCALPHA">      0.00000000</i>
   <i name="ALDAX">      1.00000000</i>
   <i name="AGGAX">      1.00000000</i>
   <i name="ALDAC">      1.00000000</i>
   <i name="AGGAC">      1.00000000</i>
   <i type="int" name="NKREDX">     1</i>
   <i type="int" name="NKREDY">     1</i>
   <i type="int" name="NKREDZ">     1</i>
   <i type="logical" name="SHIFTRED"> F  </i>
   <i type="logical" name="ODDONLY"> F  </i>
   <i type="logical" name="EVENONLY"> F  </i>
   <i type="int" name="LMAXFOCK">     0</i>
   <i type="int" name="NMAXFOCKAE">     0</i>
   <i type="logical" name="LFOCKAEDFT"> F  </i>
   <i name="HFSCREEN">      0.00000000</i>
   <i name="HFSCREENC">      0.00000000</i>
   <i type="int" name="NBANDSGWLOW">     0</i>
  </separator>
  <separator name="vdW DFT" >
   <i type="logical" name="LUSE_VDW"> F  </i>
   <i name="Zab_VDW">     -0.84910000</i>
   <i name="PARAM1">      0.12340000</i>
   <i name="PARAM2">      1.00000000</i>
   <i name="PARAM3">      0.00000000</i>
  </separator>
  <separator name="model GW" >
   <i type="int" name="MODEL_GW">     0</i>
   <i name="MODEL_EPS0">    112.50000000</i>
   <i name="MODEL_ALPHA">      1.00000000</i>
  </separator>
  <separator name="linear response parameters" >
   <i type="logical" name="LEPSILON"> F  </i>
   <i type="logical" name="LRPA"> F  </i>
   <i type="logical" name="LNABLA"> F  </i>
   <i type="logical" name="LVEL"> F  </i>
   <i name="CSHIFT">      0.10000000</i>
   <i name="OMEGAMAX">     -1.00000000</i>
   <i name="DEG_THRESHOLD">      0.00200000</i>
   <i name="RTIME">     -0.10000000</i>
   <i name="WPLASMAI">      0.00000000</i>
   <v name="DFIELD">      0.00000000      0.00000000      0.00000000</v>
   <v name="WPLASMA">      0.00000000      0.00000000      0.00000000      0.00000000      0.00000000      0.00000000      0.00000000      0.00000000      0.00000000</v>
  </separator>
  <separator name="orbital magnetization" >
   <i type="logical" name="NUCIND"> F  </i>
   <v name="MAGPOS">      0.00000000      0.00000000      0.00000000</v>
   <i type="logical" name="LNICSALL"> T  </i>
   <i type="logical" name="ORBITALMAG"> F  </i>
   <i type="logical" name="LMAGBLOCH"> F  </i>
   <i type="logical" name="LCHIMAG"> F  </i>
   <i type="logical" name="LGAUGE"> T  </i>
   <i type="int" name="MAGATOM">     0</i>
   <v name="MAGDIPOL">      0.00000000      0.00000000      0.00000000</v>
   <v name="AVECCONST">      0.00000000      0.00000000      0.00000000</v>
  </separator>
  <separator name="response functions" >
   <i type="logical" name="LFINITE_TEMPERATURE"> F  </i>
   <i type="logical" name="LADDER"> F  </i>
   <i type="logical" name="LRPAFORCE"> F  </i>
   <i type="logical" name="LFXC"> F  </i>
   <i type="logical" name="LHARTREE"> T  </i>
   <i type="int" name="IBSE">     0</i>
   <v type="int" name="KPOINT">    -1     0     0     0</v>
   <i type="logical" name="LTCTC"> F  </i>
   <i type="logical" name="LTCTE"> F  </i>
   <i type="logical" name="LTETE"> F  </i>
   <i type="logical" name="LTRIPLET"> F  </i>
   <i type="logical" name="LFXCEPS"> F  </i>
   <i type="logical" name="LFXHEG"> F  </i>
   <i type="int" name="NATURALO">     2</i>
   <i type="logical" name="LHOLEGF"> F  </i>
   <i type="logical" name="L2ORDER"> F  </i>
   <i type="logical" name="LDMP1"> F  </i>
   <i type="logical" name="LMP2LT"> F  </i>
   <i type="logical" name="LSMP2LT"> F  </i>
   <i type="logical" name="LGWLF"> F  </i>
   <i name="ENCUTGW">     -2.00000000</i>
   <i name="ENCUTGWSOFT">     -2.00000000</i>
   <i name="ENCUTLF">     -1.00000000</i>
   <i type="logical" name="LESF_SPLINES"> F  </i>
   <i type="int" name="LMAXMP2">    -1</i>
   <i name="SCISSOR">      0.00000000</i>
   <i type="int" name="NOMEGA">     0</i>
   <i type="int" name="NOMEGAR">     0</i>
   <i type="int" name="NBANDSGW">    -1</i>
   <i type="int" name="NBANDSO">    -1</i>
   <i type="int" name="NBANDSV">    -1</i>
   <i type="int" name="NELMGW">     1</i>
   <i type="int" name="NELMHF">     1</i>
   <i type="int" name="DIM">     3</i>
   <i type="int" name="IESPILON">     4</i>
   <i type="int" name="ANTIRES">     0</i>
   <i name="OMEGAMAX">    -30.00000000</i>
   <i name="OMEGAMIN">    -30.00000000</i>
   <i name="OMEGATL">   -200.00000000</i>
   <i type="int" name="OMEGAGRID">     0</i>
   <i name="CSHIFT">     -0.10000000</i>
   <i type="logical" name="LSELFENERGY"> F  </i>
   <i type="logical" name="LSPECTRAL"> F  </i>
   <i type="logical" name="LSPECTRALGW"> F  </i>
   <i type="logical" name="LSINGLES"> F  </i>
   <i type="logical" name="LFERMIGW"> F  </i>
   <i type="logical" name="ODDONLYGW"> F  </i>
   <i type="logical" name="EVENONLYGW"> F  </i>
   <i type="int" name="NKREDLFX">     1</i>
   <i type="int" name="NKREDLFY">     1</i>
   <i type="int" name="NKREDLFZ">     1</i>
   <i type="int" name="MAXMEM">  2800</i>
   <i type="int" name="TELESCOPE">     0</i>
   <i type="int" name="NTAUPAR">    -1</i>
   <i type="int" name="NOMEGAPAR">    -1</i>
   <i name="DAMP_NEWTON">      0.80000001</i>
   <i name="LAMBDA">      1.00000000</i>
  </separator>
  <separator name="External order field" >
   <i name="OFIELD_KAPPA">      0.00000000</i>
   <v name="OFIELD_K">      0.00000000      0.00000000      0.00000000</v>
   <i name="OFIELD_Q6_NEAR">      0.00000000</i>
   <i name="OFIELD_Q6_FAR">      0.00000000</i>
   <i name="OFIELD_A">      0.00000000</i>
  </separator>
  <separator name="optional k-points parameters" >
   <i type="int" name="KPOINTS_OPT_MODE">     1</i>
   <i type="logical" name="LKPOINTS_OPT"> F  </i>
  </separator>
 </parameters>
 <atominfo>
  <atoms>      18 </atoms>
  <types>       3 </types>
  <array name="atoms" >
   <dimension dim="1">ion</dimension>
   <field type="string">element</field>
   <field type="int">atomtype</field>
   <set>
    <rc><c>C </c><c>   1</c></rc>
    <rc><c>C </c><c>   1</c></rc>
    <rc><c>C </c><c>   1</c></rc>
    <rc><c>C </c><c>   1</c></rc>
    <rc><c>C </c><c>   1</c></rc>
    <rc><c>C </c><c>   1</c></rc>
    <rc><c>C </c><c>   1</c></rc>
    <rc><c>C </c><c>   1</c></rc>
    <rc><c>H </c><c>   2</c></rc>
    <rc><c>H </c><c>   2</c></rc>
    <rc><c>H </c><c>   2</c></rc>
    <rc><c>H </c><c>   2</c></rc>
    <rc><c>H </c><c>   2</c></rc>
    <rc><c>H </c><c>   2</c></rc>
    <rc><c>H </c><c>   2</c></rc>
    <rc><c>H </c><c>   2</c></rc>
    <rc><c>N </c><c>   3</c></rc>
    <rc><c>N </c><c>   3</c></rc>
   </set>
  </array>
  <array name="atomtypes" >
   <dimension dim="1">type</dimension>
   <field type="int">atomspertype</field>
   <field type="string">element</field>
   <field>mass</field>
   <field>valence</field>
   <field type="string">pseudopotential</field>
   <set>
    <rc><c>   8</c><c>C </c><c>     12.01100000</c><c>      4.00000000</c><c>  PAW_PBE C 08Apr2002                   </c></rc>
    <rc><c>   8</c><c>H </c><c>      1.00000000</c><c>      1.00000000</c><c>  PAW_PBE H 15Jun2001                   </c></rc>
    <rc><c>   2</c><c>N </c><c>     14.00100000</c><c>      5.00000000</c><c>  PAW_PBE N 08Apr2002                   </c></rc>
   </set>
  </array>
 </atominfo>
 <structure name="initialpos" >
  <crystal>
   <varray name="basis" >
    <v>      15.00000000       0.00000000       0.00000000 </v>
    <v>       0.00000000      15.00000000       0.00000000 </v>
    <v>       0.00000000       0.00000000      15.00000000 </v>
   </varray>
   <i name="volume">   3375.00000000 </i>
   <varray name="rec_basis" >
    <v>       0.06666667       0.00000000       0.00000000 </v>
    <v>       0.00000000       0.06666667       0.00000000 </v>
    <v>       0.00000000       0.00000000       0.06666667 </v>
   </varray>
  </crystal>
  <varray name="positions" >
   <v>       0.37561317       0.54382960       0.57981179 </v>
   <v>       0.37339161       0.45466637       0.57269007 </v>
   <v>       0.45492523       0.40061631       0.55552235 </v>
   <v>       0.46164359       0.59300129       0.58591402 </v>
   <v>       0.53453116       0.54427607       0.53351625 </v>
   <v>       0.54147163       0.45077239       0.57567193 </v>
   <v>       0.61500119       0.59840264       0.53719320 </v>
   <v>       0.61425970       0.39519430       0.54342913 </v>
   <v>       0.30997742       0.41903705       0.57328778 </v>
   <v>       0.45328136       0.33773946       0.59213243 </v>
   <v>       0.45849685       0.38123585       0.48527923 </v>
   <v>       0.31391263       0.58184194       0.58597603 </v>
   <v>       0.48611563       0.59660745       0.65479481 </v>
   <v>       0.45420902       0.66210257       0.56488526 </v>
   <v>       0.51808992       0.53725577       0.46294681 </v>
   <v>       0.55223351       0.45841139       0.64717257 </v>
   <v>       0.66967604       0.65308522       0.54425663 </v>
   <v>       0.66174933       0.34027148       0.51593986 </v>
  </varray>
 </structure>
 <calculation>
  <scstep>
   <time name="dav">    3.64    3.90</time>
   <time name="total">    5.17    5.68</time>
   <energy>
    <i name="alphaZ">      3.36120243 </i>
    <i name="ewald">   3149.25964071 </i>
    <i name="hartreedc">  -4391.57992083 </i>
    <i name="XCdc">    161.04612335 </i>
    <i name="pawpsdc">   1295.11405375 </i>
    <i name="pawaedc">  -1302.12229068 </i>
    <i name="eentropy">     -0.00001183 </i>
    <i name="bandstr">   -279.74338319 </i>
    <i name="atom">   1805.79685712 </i>
    <i name="e_fr_energy">    441.13227084 </i>
    <i name="e_wo_entrp">    441.13228267 </i>
    <i name="e_0_energy">    441.13227676 </i>
   </energy>
  </scstep>
  <scstep>
   <time name="dav">    4.92    4.97</time>
   <time name="total">    4.92    4.97</time>
   <energy>
    <i name="e_fr_energy">     87.93454042 </i>
    <i name="e_wo_entrp">     87.93454042 </i>
    <i name="e_0_energy">     87.93454042 </i>
   </energy>
  </scstep>
  <scstep>
   <time name="dav">    3.94    4.29</time>
   <time name="total">    3.94    4.29</time>
   <energy>
    <i name="e_fr_energy">   -103.46700908 </i>
    <i name="e_wo_entrp">   -103.46700908 </i>
    <i name="e_0_energy">   -103.46700908 </i>
   </energy>
  </scstep>
  <scstep>
   <time name="dav">    2.78    2.79</time>
   <time name="total">    2.78    2.79</time>
   <energy>
    <i name="e_fr_energy">   -126.75551459 </i>
    <i name="e_wo_entrp">   -126.75551459 </i>
    <i name="e_0_energy">   -126.75551459 </i>
   </energy>
  </scstep>
  <scstep>
   <time name="dav">    2.62    2.63</time>
   <time name="total">    2.90    2.90</time>
   <energy>
    <i name="e_fr_energy">   -127.23714392 </i>
    <i name="e_wo_entrp">   -127.23714392 </i>
    <i name="e_0_energy">   -127.23714392 </i>
   </energy>
  </scstep>
  <scstep>
   <time name="diag">    0.35    0.35</time>
   <time name="diis">    2.10    2.10</time>
   <time name="orth">    0.01    0.01</time>
   <time name="total">    4.11    4.11</time>
   <energy>
    <i name="e_fr_energy">   -118.25385153 </i>
    <i name="e_wo_entrp">   -118.25385153 </i>
    <i name="e_0_energy">   -118.25385153 </i>
   </energy>
  </scstep>
  <scstep>
   <time name="diag">    0.36    0.36</time>
   <time name="diis">    2.23    2.23</time>
   <time name="orth">    0.01    0.01</time>
   <time name="total">    4.39    4.40</time>
   <energy>
    <i name="e_fr_energy">   -116.08474643 </i>
    <i name="e_wo_entrp">   -116.08474643 </i>
    <i name="e_0_energy">   -116.08474643 </i>
   </energy>
  </scstep>
  <scstep>
   <time name="diag">    0.36    0.36</time>
   <time name="diis">    2.32    2.32</time>
   <time name="orth">    0.01    0.01</time>
   <time name="total">    4.49    4.49</time>
   <energy>
    <i name="e_fr_energy">   -115.93370362 </i>
    <i name="e_wo_entrp">   -115.93370362 </i>
    <i name="e_0_energy">   -115.93370362 </i>
   </energy>
  </scstep>
  <scstep>
   <time name="diag">    0.40    0.40</time>
   <time name="diis">    2.25    2.25</time>
   <time name="orth">    0.01    0.01</time>
   <time name="total">    4.40    4.40</time>
   <energy>
    <i name="e_fr_energy">   -115.85913883 </i>
    <i name="e_wo_entrp">   -115.85913883 </i>
    <i name="e_0_energy">   -115.85913883 </i>
   </energy>
  </scstep>
  <scstep>
   <time name="diag">    0.35    0.35</time>
   <time name="diis">    2.51    2.51</time>
   <time name="orth">    0.01    0.01</time>
   <time name="total">    4.63    4.63</time>
   <energy>
    <i name="e_fr_energy">   -115.86911400 </i>
    <i name="e_wo_entrp">   -115.86911400 </i>
    <i name="e_0_energy">   -115.86911400 </i>
   </energy>
  </scstep>
  <scstep>
   <time name="diag">    0.33    0.33</time>
   <time name="diis">    2.12    2.12</time>
   <time name="orth">    0.01    0.01</time>
   <time name="total">    4.21    4.21</time>
   <energy>
    <i name="e_fr_energy">   -115.88024179 </i>
    <i name="e_wo_entrp">   -115.88024179 </i>
    <i name="e_0_energy">   -115.88024179 </i>
   </energy>
  </scstep>
  <scstep>
   <time name="diag">    0.34    0.34</time>
   <time name="diis">    2.18    2.18</time>
   <time name="orth">    0.01    0.01</time>
   <time name="total">    4.24    4.24</time>
   <energy>
    <i name="e_fr_energy">   -115.88096430 </i>
    <i name="e_wo_entrp">   -115.88096430 </i>
    <i name="e_0_energy">   -115.88096430 </i>
   </energy>
  </scstep>
  <scstep>
   <time name="diag">    0.34    0.34</time>
   <time name="diis">    2.17    2.17</time>
   <time name="orth">    0.01    0.01</time>
   <time name="total">    4.26    4.26</time>
   <energy>
    <i name="e_fr_energy">   -115.89594842 </i>
    <i name="e_wo_entrp">   -115.89594842 </i>
    <i name="e_0_energy">   -115.89594842 </i>
   </energy>
  </scstep>
  <scstep>
   <time name="diag">    0.36    0.36</time>
   <time name="diis">    2.47    2.47</time>
   <time name="orth">    0.01    0.01</time>
   <time name="total">    4.60    4.60</time>
   <energy>
    <i name="e_fr_energy">   -115.89588649 </i>
    <i name="e_wo_entrp">   -115.89588649 </i>
    <i name="e_0_energy">   -115.89588649 </i>
   </energy>
  </scstep>
  <scstep>
   <time name="diag">    0.36    0.36</time>
   <time name="diis">    2.32    2.32</time>
   <time name="orth">    0.01    0.01</time>
   <time name="total">    4.52    4.52</time>
   <energy>
    <i name="e_fr_energy">   -115.90433911 </i>
    <i name="e_wo_entrp">   -115.90433911 </i>
    <i name="e_0_energy">   -115.90433911 </i>
   </energy>
  </scstep>
  <scstep>
   <time name="diag">    0.35    0.35</time>
   <time name="diis">    2.49    2.49</time>
   <time name="orth">    0.01    0.01</time>
   <time name="total">    4.68    4.68</time>
   <energy>
    <i name="e_fr_energy">   -115.90586731 </i>
    <i name="e_wo_entrp">   -115.90586731 </i>
    <i name="e_0_energy">   -115.90586731 </i>
   </energy>
  </scstep>
  <scstep>
   <time name="diag">    0.38    0.38</time>
   <time name="diis">    2.37    2.37</time>
   <time name="orth">    0.01    0.01</time>
   <time name="total">    4.56    4.56</time>
   <energy>
    <i name="e_fr_energy">   -115.90723450 </i>
    <i name="e_wo_entrp">   -115.90723450 </i>
    <i name="e_0_energy">   -115.90723450 </i>
   </energy>
  </scstep>
  <scstep>
   <time name="diag">    0.36    0.36</time>
   <time name="diis">    2.12    2.12</time>
   <time name="orth">    0.01    0.01</time>
   <time name="total">    4.22    4.22</time>
   <energy>
    <i name="e_fr_energy">   -115.90849450 </i>
    <i name="e_wo_entrp">   -115.90849450 </i>
    <i name="e_0_energy">   -115.90849450 </i>
   </energy>
  </scstep>
  <scstep>
   <time name="diag">    0.32    0.32</time>
   <time name="diis">    1.89    1.89</time>
   <time name="orth">    0.01    0.01</time>
   <time name="total">    3.91    3.91</time>
   <energy>
    <i name="e_fr_energy">   -115.90899105 </i>
    <i name="e_wo_entrp">   -115.90899105 </i>
    <i name="e_0_energy">   -115.90899105 </i>
   </energy>
  </scstep>
  <scstep>
   <time name="diag">    0.35    0.35</time>
   <time name="diis">    1.78    1.78</time>
   <time name="orth">    0.01    0.01</time>
   <time name="total">    3.81    3.81</time>
   <energy>
    <i name="e_fr_energy">   -115.90914175 </i>
    <i name="e_wo_entrp">   -115.90914175 </i>
    <i name="e_0_energy">   -115.90914175 </i>
   </energy>
  </scstep>
  <scstep>
   <time name="diag">    0.31    0.31</time>
   <time name="diis">    1.63    1.63</time>
   <time name="orth">    0.01    0.01</time>
   <time name="total">    3.72    3.72</time>
   <energy>
    <i name="e_fr_energy">   -115.90922278 </i>
    <i name="e_wo_entrp">   -115.90922278 </i>
    <i name="e_0_energy">   -115.90922278 </i>
   </energy>
  </scstep>
  <scstep>
   <time name="diag">    0.38    0.38</time>
   <time name="diis">    1.59    1.59</time>
   <time name="orth">    0.01    0.01</time>
   <time name="total">    3.79    3.79</time>
   <energy>
    <i name="e_fr_energy">   -115.90924976 </i>
    <i name="e_wo_entrp">   -115.90924976 </i>
    <i name="e_0_energy">   -115.90924976 </i>
   </energy>
  </scstep>
  <scstep>
   <time name="diag">    0.37    0.37</time>
   <time name="diis">    1.59    1.59</time>
   <time name="orth">    0.03    0.03</time>
   <time name="total">    3.96    3.96</time>
   <energy>
    <i name="e_fr_energy">   -115.90926569 </i>
    <i name="e_wo_entrp">   -115.90926569 </i>
    <i name="e_0_energy">   -115.90926569 </i>
   </energy>
  </scstep>
  <scstep>
   <time name="diag">    0.36    0.36</time>
   <time name="diis">    1.15    1.15</time>
   <time name="orth">    0.01    0.01</time>
   <time name="total">    3.09    3.09</time>
   <energy>
    <i name="alphaZ">      3.36120243 </i>
    <i name="ewald">   3149.25964071 </i>
    <i name="hartreedc">  -4596.95304357 </i>
    <i name="XCdc">    171.18427147 </i>
    <i name="pawpsdc">   4427.36811898 </i>
    <i name="pawaedc">  -4435.71393373 </i>
    <i name="eentropy">     -0.00000000 </i>
    <i name="bandstr">   -640.21238777 </i>
    <i name="atom">   1805.79685712 </i>
    <i name="e_fr_energy">   -115.90927437 </i>
    <i name="e_wo_entrp">   -115.90927437 </i>
    <i name="e_0_energy">   -115.90927437 </i>
   </energy>
  </scstep>
  <structure>
   <crystal>
    <varray name="basis" >
     <v>      15.00000000       0.00000000       0.00000000 </v>
     <v>       0.00000000      15.00000000       0.00000000 </v>
     <v>       0.00000000       0.00000000      15.00000000 </v>
    </varray>
    <i name="volume">   3375.00000000 </i>
    <varray name="rec_basis" >
     <v>       0.06666667       0.00000000       0.00000000 </v>
     <v>       0.00000000       0.06666667       0.00000000 </v>
     <v>       0.00000000       0.00000000       0.06666667 </v>
    </varray>
   </crystal>
   <varray name="positions" >
    <v>       0.37561317       0.54382960       0.57981179 </v>
    <v>       0.37339161       0.45466637       0.57269007 </v>
    <v>       0.45492523       0.40061631       0.55552235 </v>
    <v>       0.46164359       0.59300129       0.58591402 </v>
    <v>       0.53453116       0.54427607       0.53351625 </v>
    <v>       0.54147163       0.45077239       0.57567193 </v>
    <v>       0.61500119       0.59840264       0.53719320 </v>
    <v>       0.61425970       0.39519430       0.54342913 </v>
    <v>       0.30997742       0.41903705       0.57328778 </v>
    <v>       0.45328136       0.33773946       0.59213243 </v>
    <v>       0.45849685       0.38123585       0.48527923 </v>
    <v>       0.31391263       0.58184194       0.58597603 </v>
    <v>       0.48611563       0.59660745       0.65479481 </v>
    <v>       0.45420902       0.66210257       0.56488526 </v>
    <v>       0.51808992       0.53725577       0.46294681 </v>
    <v>       0.55223351       0.45841139       0.64717257 </v>
    <v>       0.66967604       0.65308522       0.54425663 </v>
    <v>       0.66174933       0.34027148       0.51593986 </v>
   </varray>
  </structure>
  <varray name="forces" >
   <v>      -0.31384757      -0.48624264       0.50147971 </v>
   <v>      -0.25357109       0.40710402      -0.34051922 </v>
   <v>      -0.08071745      -0.17793116       0.25914711 </v>
   <v>      -0.06642085       0.21742917      -0.24719621 </v>
   <v>       0.51738554       0.17825811       0.19012904 </v>
   <v>       0.45085270      -0.19694952      -0.29443375 </v>
   <v>      -0.14198044       0.05093676       0.19880288 </v>
   <v>      -0.18082629      -0.03152725      -0.14349068 </v>
   <v>      -0.08064383       0.00998073      -0.10721399 </v>
   <v>       0.03888435      -0.23572538       0.23612043 </v>
   <v>      -0.21058483      -0.14554025      -0.34906952 </v>
   <v>      -0.04706792       0.00121661       0.12435027 </v>
   <v>      -0.14934181       0.10702614       0.29129227 </v>
   <v>       0.04622911       0.27274258      -0.29461924 </v>
   <v>      -0.29790388      -0.06960465      -0.31789341 </v>
   <v>      -0.10690245       0.11919569       0.43495498 </v>
   <v>       0.44308838       0.05538481      -0.04114979 </v>
   <v>       0.43336832      -0.07575375      -0.10069087 </v>
  </varray>
  <varray name="stress" >
   <v>       0.50444198       0.08579847      -0.12045868 </v>
   <v>       0.08579847      -0.12222755       0.21236695 </v>
   <v>      -0.12045868       0.21236695      -0.33944988 </v>
  </varray>
  <energy>
   <i name="e_fr_energy">   -116.15200220 </i>
   <i name="e_wo_entrp">   -116.15200220 </i>
   <i name="e_0_energy">   -116.15200220 </i>
  </energy>
  <time name="totalsc">  139.70  140.79</time>
 </calculation>
 <calculation>
  <scstep>
   <time name="dav">    4.49    4.72</time>
   <time name="total">    6.88    7.12</time>
   <energy>
    <i name="alphaZ">      3.36120243 </i>
    <i name="ewald">   3144.56267039 </i>
    <i name="hartreedc">  -4593.12456261 </i>
    <i name="XCdc">    171.12939254 </i>
    <i name="pawpsdc">   4427.36235064 </i>
    <i name="pawaedc">  -4435.70816548 </i>
    <i name="eentropy">     -0.00000000 </i>
    <i name="bandstr">   -639.31549302 </i>
    <i name="atom">   1805.79685712 </i>
    <i name="e_fr_energy">   -115.93574799 </i>
    <i name="e_wo_entrp">   -115.93574799 </i>
    <i name="e_0_energy">   -115.93574799 </i>
   </energy>
  </scstep>
  <scstep>
   <time name="diag">    0.71    0.71</time>
   <time name="diis">    3.92    4.01</time>
   <time name="orth">    0.01    0.02</time>
   <time name="total">    7.22    7.47</time>
   <energy>
    <i name="e_fr_energy">   -115.93707890 </i>
    <i name="e_wo_entrp">   -115.93707890 </i>
    <i name="e_0_energy">   -115.93707890 </i>
   </energy>
  </scstep>
  <scstep>
   <time name="diag">    0.63    0.63</time>
   <time name="diis">    3.36    3.49</time>
   <time name="orth">    0.01    0.02</time>
   <time name="total">    6.51    6.67</time>
   <energy>
    <i name="e_fr_energy">   -115.93721768 </i>
    <i name="e_wo_entrp">   -115.93721768 </i>
    <i name="e_0_energy">   -115.93721768 </i>
   </energy>
  </scstep>
  <scstep>
   <time name="diag">    0.63    0.65</time>
   <time name="diis">    3.10    3.13</time>
   <time name="orth">    0.01    0.01</time>
   <time name="total">    6.18    6.26</time>
   <energy>
    <i name="e_fr_energy">   -115.93734232 </i>
    <i name="e_wo_entrp">   -115.93734232 </i>
    <i name="e_0_energy">   -115.93734232 </i>
   </energy>
  </scstep>
  <scstep>
   <time name="diag">    0.36    0.36</time>
   <time name="diis">    2.22    2.22</time>
   <time name="orth">    0.01    0.01</time>
   <time name="total">    4.29    4.29</time>
   <energy>
    <i name="e_fr_energy">   -115.93737594 </i>
    <i name="e_wo_entrp">   -115.93737594 </i>
    <i name="e_0_energy">   -115.93737594 </i>
   </energy>
  </scstep>
  <scstep>
   <time name="diag">    0.29    0.29</time>
   <time name="diis">    1.55    1.55</time>
   <time name="orth">    0.01    0.01</time>
   <time name="total">    3.21    3.21</time>
   <energy>
    <i name="alphaZ">      3.36120243 </i>
    <i name="ewald">   3144.56267039 </i>
    <i name="hartreedc">  -4592.50396633 </i>
    <i name="XCdc">    171.09666830 </i>
    <i name="pawpsdc">   4415.90336762 </i>
    <i name="pawaedc">  -4424.23864054 </i>
    <i name="eentropy">     -0.00000000 </i>
    <i name="bandstr">   -639.91554393 </i>
    <i name="atom">   1805.79685712 </i>
    <i name="e_fr_energy">   -115.93738495 </i>
    <i name="e_wo_entrp">   -115.93738495 </i>
    <i name="e_0_energy">   -115.93738495 </i>
   </energy>
  </scstep>
  <structure>
   <crystal>
    <varray name="basis" >
     <v>      15.00000000       0.00000000       0.00000000 </v>
     <v>       0.00000000      15.00000000       0.00000000 </v>
     <v>       0.00000000       0.00000000      15.00000000 </v>
    </varray>
    <i name="volume">   3375.00000000 </i>
    <varray name="rec_basis" >
     <v>       0.06666667       0.00000000       0.00000000 </v>
     <v>       0.00000000       0.06666667       0.00000000 </v>
     <v>       0.00000000       0.00000000       0.06666667 </v>
    </varray>
   </crystal>
   <varray name="positions" >
    <v>       0.37542399       0.54351071       0.58005986 </v>
    <v>       0.37327390       0.45493230       0.57233027 </v>
    <v>       0.45494234       0.40050141       0.55565894 </v>
    <v>       0.46157743       0.59320874       0.58569173 </v>
    <v>       0.53495962       0.54444149       0.53379058 </v>
    <v>       0.54178993       0.45066189       0.57559200 </v>
    <v>       0.61500709       0.59843226       0.53769323 </v>
    <v>       0.61426696       0.39527527       0.54354072 </v>
    <v>       0.30997621       0.41904195       0.57300637 </v>
    <v>       0.45332422       0.33760058       0.59228340 </v>
    <v>       0.45850690       0.38111449       0.48503331 </v>
    <v>       0.31387480       0.58180416       0.58597872 </v>
    <v>       0.48583852       0.59694659       0.65492519 </v>
    <v>       0.45421643       0.66226267       0.56443187 </v>
    <v>       0.51814854       0.53728164       0.46286410 </v>
    <v>       0.55204724       0.45847706       0.64758183 </v>
    <v>       0.67014793       0.65296346       0.54475460 </v>
    <v>       0.66232806       0.34049281       0.51615177 </v>
   </varray>
  </structure>
  <varray name="forces" >
   <v>      -0.16586024       0.03399809       0.43198382 </v>
   <v>      -0.18739149      -0.08936074      -0.29757153 </v>
   <v>      -0.07282234      -0.11134308       0.04041603 </v>
   <v>      -0.07255846       0.09312030      -0.06722751 </v>
   <v>       0.22363875       0.04587071      -0.02993950 </v>
   <v>       0.24453082      -0.06979987      -0.00564752 </v>
   <v>       0.27766049       0.39077907       0.21382446 </v>
   <v>       0.18602100      -0.36650669      -0.30323568 </v>
   <v>      -0.07682065       0.02191892      -0.11241355 </v>
   <v>       0.02396828      -0.20739559       0.23045388 </v>
   <v>      -0.21161028      -0.11592828      -0.18042761 </v>
   <v>      -0.05855374      -0.01246287       0.13375980 </v>
   <v>      -0.17769838       0.11864247       0.17491604 </v>
   <v>       0.02534038       0.25140001      -0.29116811 </v>
   <v>      -0.21186921      -0.03695649      -0.13381033 </v>
   <v>      -0.09752613       0.07894185       0.23852297 </v>
   <v>       0.16103847      -0.20765772      -0.06917850 </v>
   <v>       0.19051274       0.18273993       0.02674284 </v>
  </varray>
  <varray name="stress" >
   <v>       0.24764187       0.05511123      -0.14305719 </v>
   <v>       0.05511123      -0.17831656       0.13859534 </v>
   <v>      -0.14305719       0.13859534      -0.66269204 </v>
  </varray>
  <energy>
   <i name="e_fr_energy">   -116.18007814 </i>
   <i name="e_wo_entrp">   -116.18007814 </i>
   <i name="e_0_energy">   -116.18007814 </i>
  </energy>
  <time name="totalsc">   55.47   56.23</time>
 </calculation>
 <calculation>
  <scstep>
   <time name="dav">    2.14    2.14</time>
   <time name="total">    3.91    3.92</time>
   <energy>
    <i name="alphaZ">      3.36120243 </i>
    <i name="ewald">   3140.91829725 </i>
    <i name="hartreedc">  -4588.84448063 </i>
    <i name="XCdc">    171.07140996 </i>
    <i name="pawpsdc">   4416.28984985 </i>
    <i name="pawaedc">  -4424.62506261 </i>
    <i name="eentropy">     -0.00000000 </i>
    <i name="bandstr">   -639.91801392 </i>
    <i name="atom">   1805.79685712 </i>
    <i name="e_fr_energy">   -115.94994055 </i>
    <i name="e_wo_entrp">   -115.94994055 </i>
    <i name="e_0_energy">   -115.94994055 </i>
   </energy>
  </scstep>
  <scstep>
   <time name="diag">    0.37    0.37</time>
   <time name="diis">    2.23    2.23</time>
   <time name="orth">    0.01    0.01</time>
   <time name="total">    4.44    4.44</time>
   <energy>
    <i name="e_fr_energy">   -115.95061902 </i>
    <i name="e_wo_entrp">   -115.95061902 </i>
    <i name="e_0_energy">   -115.95061902 </i>
   </energy>
  </scstep>
  <scstep>
   <time name="diag">    0.39    0.39</time>
   <time name="diis">    3.66    3.66</time>
   <time name="orth">    0.01    0.01</time>
   <time name="total">    5.75    5.75</time>
   <energy>
    <i name="e_fr_energy">   -115.95068637 </i>
    <i name="e_wo_entrp">   -115.95068637 </i>
    <i name="e_0_energy">   -115.95068637 </i>
   </energy>
  </scstep>
  <scstep>
   <time name="diag">    0.41    0.41</time>
   <time name="diis">    2.22    2.22</time>
   <time name="orth">    0.01    0.01</time>
   <time name="total">    4.42    4.43</time>
   <energy>
    <i name="e_fr_energy">   -115.95076796 </i>
    <i name="e_wo_entrp">   -115.95076796 </i>
    <i name="e_0_energy">   -115.95076796 </i>
   </energy>
  </scstep>
  <scstep>
   <time name="diag">    0.37    0.37</time>
   <time name="diis">    1.79    1.80</time>
   <time name="orth">    0.00    0.00</time>
   <time name="total">    3.80    3.80</time>
   <energy>
    <i name="e_fr_energy">   -115.95078639 </i>
    <i name="e_wo_entrp">   -115.95078639 </i>
    <i name="e_0_energy">   -115.95078639 </i>
   </energy>
  </scstep>
  <scstep>
   <time name="diag">    0.17    0.17</time>
   <time name="diis">    0.80    0.80</time>
   <time name="orth">    0.00    0.00</time>
   <time name="total">    1.78    1.78</time>
   <energy>
    <i name="alphaZ">      3.36120243 </i>
    <i name="ewald">   3140.91829725 </i>
    <i name="hartreedc">  -4588.96253032 </i>
    <i name="XCdc">    171.08530500 </i>
    <i name="pawpsdc">   4418.95730550 </i>
    <i name="pawaedc">  -4427.29901542 </i>
    <i name="eentropy">     -0.00000000 </i>
    <i name="bandstr">   -639.80821550 </i>
    <i name="atom">   1805.79685712 </i>
    <i name="e_fr_energy">   -115.95079394 </i>
    <i name="e_wo_entrp">   -115.95079394 </i>
    <i name="e_0_energy">   -115.95079394 </i>
   </energy>
  </scstep>
  <structure>
   <crystal>
    <varray name="basis" >
     <v>      15.00000000       0.00000000       0.00000000 </v>
     <v>       0.00000000      15.00000000       0.00000000 </v>
     <v>       0.00000000       0.00000000      15.00000000 </v>
    </varray>
    <i name="volume">   3375.00000000 </i>
    <varray name="rec_basis" >
     <v>       0.06666667       0.00000000       0.00000000 </v>
     <v>       0.00000000       0.06666667       0.00000000 </v>
     <v>       0.00000000       0.00000000       0.06666667 </v>
    </varray>
   </crystal>
   <varray name="positions" >
    <v>       0.37533429       0.54352456       0.58028765 </v>
    <v>       0.37319263       0.45486597       0.57205142 </v>
    <v>       0.45495089       0.40045965       0.55552379 </v>
    <v>       0.46152533       0.59330111       0.58561309 </v>
    <v>       0.53519553       0.54448140       0.53387661 </v>
    <v>       0.54197003       0.45063937       0.57574847 </v>
    <v>       0.61526110       0.59872364       0.53804237 </v>
    <v>       0.61455794       0.39507323       0.54373600 </v>
    <v>       0.30997517       0.41903777       0.57287138 </v>
    <v>       0.45330450       0.33732778       0.59205129 </v>
    <v>       0.45856026       0.38133692       0.48463331 </v>
    <v>       0.31384320       0.58176357       0.58604113 </v>
    <v>       0.48563804       0.59715466       0.65503599 </v>
    <v>       0.45421652       0.66243415       0.56411631 </v>
    <v>       0.51821180       0.53722898       0.46284986 </v>
    <v>       0.55176747       0.45855997       0.64795982 </v>
    <v>       0.67028908       0.65289159       0.54497892 </v>
    <v>       0.66275324       0.34064949       0.51674525 </v>
   </varray>
  </structure>
  <varray name="forces" >
   <v>      -0.09543756      -0.07360801       0.34446273 </v>
   <v>      -0.11553564       0.03012943      -0.23245539 </v>
   <v>      -0.03024527      -0.13655662      -0.01445062 </v>
   <v>      -0.04038818       0.10705096      -0.01739686 </v>
   <v>       0.19398909       0.06562393      -0.04045926 </v>
   <v>       0.21314701      -0.09665292       0.00821109 </v>
   <v>      -0.21304663      -0.08643554       0.12973939 </v>
   <v>      -0.20112018       0.07079924      -0.05783354 </v>
   <v>      -0.11671323      -0.00434940      -0.12006050 </v>
   <v>       0.02216234      -0.14117683       0.18751252 </v>
   <v>      -0.19985350      -0.10583355      -0.09306374 </v>
   <v>      -0.09525813       0.00933411       0.14843512 </v>
   <v>      -0.18269651       0.12724525       0.11263365 </v>
   <v>       0.02389072       0.18297836      -0.26442201 </v>
   <v>      -0.16588202      -0.02065029      -0.06960403 </v>
   <v>      -0.08416995       0.05428852       0.15142728 </v>
   <v>       0.57611352       0.20831281      -0.00839178 </v>
   <v>       0.51104412      -0.19049945      -0.16428405 </v>
  </varray>
  <varray name="stress" >
   <v>       0.35200527       0.07520381      -0.18268418 </v>
   <v>       0.07520381      -0.10502178       0.21236268 </v>
   <v>      -0.18268419       0.21236268      -0.80751769 </v>
  </varray>
  <energy>
   <i name="e_fr_energy">   -116.19355278 </i>
   <i name="e_wo_entrp">   -116.19355278 </i>
   <i name="e_0_energy">   -116.19355278 </i>
  </energy>
  <time name="totalsc">   44.80   44.84</time>
 </calculation>
 <calculation>
  <scstep>
   <time name="dav">    2.14    2.14</time>
   <time name="total">    3.93    3.93</time>
   <energy>
    <i name="alphaZ">      3.36120243 </i>
    <i name="ewald">   3131.47717447 </i>
    <i name="hartreedc">  -4581.18107432 </i>
    <i name="XCdc">    170.98044648 </i>
    <i name="pawpsdc">   4418.97360368 </i>
    <i name="pawaedc">  -4427.31538103 </i>
    <i name="eentropy">     -0.00000000 </i>
    <i name="bandstr">   -638.05792047 </i>
    <i name="atom">   1805.79685712 </i>
    <i name="e_fr_energy">   -115.96509165 </i>
    <i name="e_wo_entrp">   -115.96509165 </i>
    <i name="e_0_energy">   -115.96509165 </i>
   </energy>
  </scstep>
  <scstep>
   <time name="diag">    0.36    0.36</time>
   <time name="diis">    2.35    2.35</time>
   <time name="orth">    0.01    0.01</time>
   <time name="total">    4.39    4.39</time>
   <energy>
    <i name="e_fr_energy">   -115.96772560 </i>
    <i name="e_wo_entrp">   -115.96772560 </i>
    <i name="e_0_energy">   -115.96772560 </i>
   </energy>
  </scstep>
  <scstep>
   <time name="diag">    0.48    0.48</time>
   <time name="diis">    2.29    2.29</time>
   <time name="orth">    0.01    0.01</time>
   <time name="total">    4.53    4.54</time>
   <energy>
    <i name="e_fr_energy">   -115.96813369 </i>
    <i name="e_wo_entrp">   -115.96813369 </i>
    <i name="e_0_energy">   -115.96813369 </i>
   </energy>
  </scstep>
  <scstep>
   <time name="diag">    0.37    0.37</time>
   <time name="diis">    2.38    2.38</time>
   <time name="orth">    0.01    0.01</time>
   <time name="total">    4.51    4.51</time>
   <energy>
    <i name="e_fr_energy">   -115.96834293 </i>
    <i name="e_wo_entrp">   -115.96834293 </i>
    <i name="e_0_energy">   -115.96834293 </i>
   </energy>
  </scstep>
  <scstep>
   <time name="diag">    0.37    0.37</time>
   <time name="diis">    2.50    2.50</time>
   <time name="orth">    0.01    0.01</time>
   <time name="total">    4.66    4.66</time>
   <energy>
    <i name="e_fr_energy">   -115.96843280 </i>
    <i name="e_wo_entrp">   -115.96843280 </i>
    <i name="e_0_energy">   -115.96843280 </i>
   </energy>
  </scstep>
  <scstep>
   <time name="diag">    0.45    0.45</time>
   <time name="diis">    2.02    2.02</time>
   <time name="orth">    0.01    0.01</time>
   <time name="total">    4.14    4.14</time>
   <energy>
    <i name="e_fr_energy">   -115.96845542 </i>
    <i name="e_wo_entrp">   -115.96845542 </i>
    <i name="e_0_energy">   -115.96845542 </i>
   </energy>
  </scstep>
  <scstep>
   <time name="diag">    0.36    0.36</time>
   <time name="diis">    1.45    1.45</time>
   <time name="orth">    0.01    0.01</time>
   <time name="total">    3.21    3.21</time>
   <energy>
    <i name="alphaZ">      3.36120243 </i>
    <i name="ewald">   3131.47717447 </i>
    <i name="hartreedc">  -4579.96589320 </i>
    <i name="XCdc">    170.92562265 </i>
    <i name="pawpsdc">   4389.25856965 </i>
    <i name="pawaedc">  -4397.58062220 </i>
    <i name="eentropy">     -0.00000000 </i>
    <i name="bandstr">   -639.24137564 </i>
    <i name="atom">   1805.79685712 </i>
    <i name="e_fr_energy">   -115.96846472 </i>
    <i name="e_wo_entrp">   -115.96846472 </i>
    <i name="e_0_energy">   -115.96846472 </i>
   </energy>
  </scstep>
  <structure>
   <crystal>
    <varray name="basis" >
     <v>      15.00000000       0.00000000       0.00000000 </v>
     <v>       0.00000000      15.00000000       0.00000000 </v>
     <v>       0.00000000       0.00000000      15.00000000 </v>
    </varray>
    <i name="volume">   3375.00000000 </i>
    <varray name="rec_basis" >
     <v>       0.06666667       0.00000000       0.00000000 </v>
     <v>       0.00000000       0.06666667       0.00000000 </v>
     <v>       0.00000000       0.00000000       0.06666667 </v>
    </varray>
   </crystal>
   <varray name="positions" >
    <v>       0.37522652       0.54347084       0.58062945 </v>
    <v>       0.37309784       0.45483860       0.57161725 </v>
    <v>       0.45499145       0.40036437       0.55526380 </v>
    <v>       0.46145777       0.59347025       0.58551544 </v>
    <v>       0.53557857       0.54456497       0.53400901 </v>
    <v>       0.54226067       0.45057748       0.57601550 </v>
    <v>       0.61533782       0.59888021       0.53857072 </v>
    <v>       0.61476591       0.39503609       0.54421714 </v>
    <v>       0.30993845       0.41901293       0.57263527 </v>
    <v>       0.45327328       0.33691163       0.59165391 </v>
    <v>       0.45864111       0.38170269       0.48402643 </v>
    <v>       0.31375996       0.58171193       0.58616488 </v>
    <v>       0.48529153       0.59751218       0.65518511 </v>
    <v>       0.45421732       0.66268432       0.56359542 </v>
    <v>       0.51833516       0.53715135       0.46286407 </v>
    <v>       0.55130841       0.45868404       0.64853476 </v>
    <v>       0.67083871       0.65306456       0.54538813 </v>
    <v>       0.66370300       0.34064558       0.51758358 </v>
   </varray>
  </structure>
  <varray name="forces" >
   <v>      -0.02124009      -0.08603805       0.22854134 </v>
   <v>      -0.03958333       0.05717910      -0.14893305 </v>
   <v>       0.00130240      -0.14131130      -0.06185338 </v>
   <v>      -0.02010722       0.10710970       0.03640558 </v>
   <v>       0.00671976       0.00571093      -0.03778965 </v>
   <v>       0.04065961      -0.05406413       0.05766524 </v>
   <v>       0.27348902       0.33625470       0.13773449 </v>
   <v>       0.20424493      -0.32042109      -0.21753652 </v>
   <v>      -0.13686666      -0.01788572      -0.13054126 </v>
   <v>       0.01857548      -0.04889238       0.12705322 </v>
   <v>      -0.17686363      -0.09842115       0.01143633 </v>
   <v>      -0.11140545       0.01485818       0.16600912 </v>
   <v>      -0.17882258       0.14109552       0.03780022 </v>
   <v>       0.01893495       0.08774299      -0.22477995 </v>
   <v>      -0.10872813      -0.00317539       0.00955438 </v>
   <v>      -0.06817886       0.02353793       0.03862620 </v>
   <v>       0.14700466      -0.19357285      -0.04621273 </v>
   <v>       0.15086515       0.19029302       0.01682044 </v>
  </varray>
  <varray name="stress" >
   <v>      -0.04253236       0.04128990      -0.15467563 </v>
   <v>       0.04128990      -0.60926450       0.12776004 </v>
   <v>      -0.15467563       0.12776004      -1.06867010 </v>
  </varray>
  <energy>
   <i name="e_fr_energy">   -116.21112669 </i>
   <i name="e_wo_entrp">   -116.21112669 </i>
   <i name="e_0_energy">   -116.21112669 </i>
  </energy>
  <time name="totalsc">   70.77   71.26</time>
 </calculation>
 <calculation>
  <scstep>
   <time name="dav">    2.48    2.52</time>
   <time name="total">    4.48    4.58</time>
   <energy>
    <i name="alphaZ">      3.36120243 </i>
    <i name="ewald">   3114.22315834 </i>
    <i name="hartreedc">  -4564.60199584 </i>
    <i name="XCdc">    170.76424338 </i>
    <i name="pawpsdc">   4388.30884374 </i>
    <i name="pawaedc">  -4396.63100776 </i>
    <i name="eentropy">     -0.00000000 </i>
    <i name="bandstr">   -637.19305749 </i>
    <i name="atom">   1805.79685712 </i>
    <i name="e_fr_energy">   -115.97175609 </i>
    <i name="e_wo_entrp">   -115.97175609 </i>
    <i name="e_0_energy">   -115.97175609 </i>
   </energy>
  </scstep>
  <scstep>
   <time name="diag">    0.57    0.57</time>
   <time name="diis">    3.04    3.04</time>
   <time name="orth">    0.02    0.02</time>
   <time name="total">    6.00    6.03</time>
   <energy>
    <i name="e_fr_energy">   -115.98802375 </i>
    <i name="e_wo_entrp">   -115.98802375 </i>
    <i name="e_0_energy">   -115.98802375 </i>
   </energy>
  </scstep>
  <scstep>
   <time name="diag">    0.48    0.48</time>
   <time name="diis">    3.34    3.63</time>
   <time name="orth">    0.02    0.02</time>
   <time name="total">    6.34    6.64</time>
   <energy>
    <i name="e_fr_energy">   -115.99036773 </i>
    <i name="e_wo_entrp">   -115.99036773 </i>
    <i name="e_0_energy">   -115.99036773 </i>
   </energy>
  </scstep>
  <scstep>
   <time name="diag">    0.55    0.55</time>
   <time name="diis">    3.03    3.06</time>
   <time name="orth">    0.03    0.03</time>
   <time name="total">    6.23    6.29</time>
   <energy>
    <i name="e_fr_energy">   -115.99110213 </i>
    <i name="e_wo_entrp">   -115.99110213 </i>
    <i name="e_0_energy">   -115.99110213 </i>
   </energy>
  </scstep>
  <scstep>
   <time name="diag">    0.53    0.53</time>
   <time name="diis">    3.43    3.43</time>
   <time name="orth">    0.02    0.03</time>
   <time name="total">    6.40    6.49</time>
   <energy>
    <i name="e_fr_energy">   -115.99144673 </i>
    <i name="e_wo_entrp">   -115.99144673 </i>
    <i name="e_0_energy">   -115.99144673 </i>
   </energy>
  </scstep>
  <scstep>
   <time name="diag">    0.42    0.43</time>
   <time name="diis">    3.15    3.37</time>
   <time name="orth">    0.01    0.03</time>
   <time name="total">    5.71    6.18</time>
   <energy>
    <i name="e_fr_energy">   -115.99151050 </i>
    <i name="e_wo_entrp">   -115.99151050 </i>
    <i name="e_0_energy">   -115.99151050 </i>
   </energy>
  </scstep>
  <scstep>
   <time name="diag">    0.74    0.75</time>
   <time name="diis">    2.84    2.86</time>
   <time name="orth">    0.01    0.02</time>
   <time name="total">    5.81    5.88</time>
   <energy>
    <i name="e_fr_energy">   -115.99153086 </i>
    <i name="e_wo_entrp">   -115.99153086 </i>
    <i name="e_0_energy">   -115.99153086 </i>
   </energy>
  </scstep>
  <scstep>
   <time name="diag">    0.45    0.46</time>
   <time name="diis">    1.97    1.98</time>
   <time name="orth">    0.01    0.01</time>
   <time name="total">    4.55    4.58</time>
   <energy>
    <i name="e_fr_energy">   -115.99155628 </i>
    <i name="e_wo_entrp">   -115.99155628 </i>
    <i name="e_0_energy">   -115.99155628 </i>
   </energy>
  </scstep>
  <scstep>
   <time name="diag">    0.54    0.59</time>
   <time name="diis">    1.82    2.00</time>
   <time name="orth">    0.02    0.02</time>
   <time name="total">    5.02    5.40</time>
   <energy>
    <i name="e_fr_energy">   -115.99157746 </i>
    <i name="e_wo_entrp">   -115.99157746 </i>
    <i name="e_0_energy">   -115.99157746 </i>
   </energy>
  </scstep>
  <scstep>
   <time name="diag">    0.37    0.37</time>
   <time name="diis">    1.13    1.15</time>
   <time name="orth">    0.01    0.01</time>
   <time name="total">    2.80    2.92</time>
   <energy>
    <i name="alphaZ">      3.36120243 </i>
    <i name="ewald">   3114.22315834 </i>
    <i name="hartreedc">  -4563.46632656 </i>
    <i name="XCdc">    170.72842269 </i>
    <i name="pawpsdc">   4357.33828556 </i>
    <i name="pawaedc">  -4365.64767296 </i>
    <i name="eentropy">     -0.00000000 </i>
    <i name="bandstr">   -638.32551235 </i>
    <i name="atom">   1805.79685712 </i>
    <i name="e_fr_energy">   -115.99158572 </i>
    <i name="e_wo_entrp">   -115.99158572 </i>
    <i name="e_0_energy">   -115.99158572 </i>
   </energy>
  </scstep>
  <structure>
   <crystal>
    <varray name="basis" >
     <v>      15.00000000       0.00000000       0.00000000 </v>
     <v>       0.00000000      15.00000000       0.00000000 </v>
     <v>       0.00000000       0.00000000      15.00000000 </v>
    </varray>
    <i name="volume">   3375.00000000 </i>
    <varray name="rec_basis" >
     <v>       0.06666667       0.00000000       0.00000000 </v>
     <v>       0.00000000       0.06666667       0.00000000 </v>
     <v>       0.00000000       0.00000000       0.06666667 </v>
    </varray>
   </crystal>
   <varray name="positions" >
    <v>       0.37508482       0.54325551       0.58132432 </v>
    <v>       0.37298320       0.45487901       0.57067501 </v>
    <v>       0.45514444       0.40008338       0.55455490 </v>
    <v>       0.46133104       0.59390527       0.58538087 </v>
    <v>       0.53625574       0.54470467       0.53430986 </v>
    <v>       0.54274390       0.45045225       0.57672185 </v>
    <v>       0.61591273       0.59959458       0.53982072 </v>
    <v>       0.61558914       0.39462195       0.54522370 </v>
    <v>       0.30977151       0.41892087       0.57202708 </v>
    <v>       0.45320316       0.33605324       0.59066500 </v>
    <v>       0.45881198       0.38254996       0.48276401 </v>
    <v>       0.31349708       0.58161148       0.58653126 </v>
    <v>       0.48442845       0.59841264       0.65543155 </v>
    <v>       0.45421790       0.66315690       0.56236481 </v>
    <v>       0.51868368       0.53699467       0.46302099 </v>
    <v>       0.55022986       0.45893588       0.64972658 </v>
    <v>       0.67188368       0.65315990       0.54632486 </v>
    <v>       0.66572369       0.34094445       0.51967705 </v>
   </varray>
  </structure>
  <varray name="forces" >
   <v>       0.03943836       0.10282690       0.02452142 </v>
   <v>       0.03377036      -0.11328689      -0.00757180 </v>
   <v>       0.03519078      -0.06225532      -0.06031254 </v>
   <v>       0.00258795       0.05042488       0.05722380 </v>
   <v>      -0.10076003       0.03534781       0.06774778 </v>
   <v>      -0.10351986      -0.09465171      -0.01764539 </v>
   <v>       0.02814110       0.04652527       0.01319265 </v>
   <v>       0.02304667      -0.05172248      -0.00609907 </v>
   <v>      -0.08842667       0.01082966      -0.15103786 </v>
   <v>       0.00670471       0.10911214       0.01792169 </v>
   <v>      -0.11868206      -0.10531457       0.14637641 </v>
   <v>      -0.05986319      -0.03185854       0.19250270 </v>
   <v>      -0.14238355       0.17215465      -0.05324143 </v>
   <v>      -0.00186671      -0.08221246      -0.14140697 </v>
   <v>      -0.00565502       0.03526998       0.11740006 </v>
   <v>      -0.02787351      -0.04484102      -0.14297815 </v>
   <v>       0.26123174      -0.04107979       0.00067857 </v>
   <v>       0.21891892       0.06473148      -0.05727186 </v>
  </varray>
  <varray name="stress" >
   <v>      -0.49920955       0.03701579      -0.14319247 </v>
   <v>       0.03701579      -1.03392479       0.13602296 </v>
   <v>      -0.14319247       0.13602296      -1.44185651 </v>
  </varray>
  <energy>
   <i name="e_fr_energy">   -116.23421615 </i>
   <i name="e_wo_entrp">   -116.23421615 </i>
   <i name="e_0_energy">   -116.23421615 </i>
  </energy>
  <time name="totalsc">   77.67   79.80</time>
 </calculation>
 <calculation>
  <scstep>
   <time name="dav">    3.85    4.02</time>
   <time name="total">    6.14    6.31</time>
   <energy>
    <i name="alphaZ">      3.36120243 </i>
    <i name="ewald">   3115.32537207 </i>
    <i name="hartreedc">  -4564.41194741 </i>
    <i name="XCdc">    170.74211198 </i>
    <i name="pawpsdc">   4357.19974456 </i>
    <i name="pawaedc">  -4365.50921436 </i>
    <i name="eentropy">     -0.00000000 </i>
    <i name="bandstr">   -638.49704303 </i>
    <i name="atom">   1805.79685712 </i>
    <i name="e_fr_energy">   -115.99291663 </i>
    <i name="e_wo_entrp">   -115.99291663 </i>
    <i name="e_0_energy">   -115.99291663 </i>
   </energy>
  </scstep>
  <scstep>
   <time name="diag">    0.79    0.88</time>
   <time name="diis">    3.21    3.36</time>
   <time name="orth">    0.02    0.02</time>
   <time name="total">    6.93    7.31</time>
   <energy>
    <i name="e_fr_energy">   -115.99293779 </i>
    <i name="e_wo_entrp">   -115.99293779 </i>
    <i name="e_0_energy">   -115.99293779 </i>
   </energy>
  </scstep>
  <scstep>
   <time name="diag">    0.43    0.43</time>
   <time name="diis">    2.89    2.91</time>
   <time name="orth">    0.02    0.03</time>
   <time name="total">    5.46    5.74</time>
   <energy>
    <i name="e_fr_energy">   -115.99294001 </i>
    <i name="e_wo_entrp">   -115.99294001 </i>
    <i name="e_0_energy">   -115.99294001 </i>
   </energy>
  </scstep>
  <scstep>
   <time name="diag">    0.26    0.26</time>
   <time name="diis">    1.33    1.48</time>
   <time name="orth">    0.01    0.01</time>
   <time name="total">    3.13    3.28</time>
   <energy>
    <i name="alphaZ">      3.36120243 </i>
    <i name="ewald">   3115.32537207 </i>
    <i name="hartreedc">  -4564.49701207 </i>
    <i name="XCdc">    170.74534299 </i>
    <i name="pawpsdc">   4358.66777560 </i>
    <i name="pawaedc">  -4366.97780587 </i>
    <i name="eentropy">     -0.00000000 </i>
    <i name="bandstr">   -638.41467800 </i>
    <i name="atom">   1805.79685712 </i>
    <i name="e_fr_energy">   -115.99294573 </i>
    <i name="e_wo_entrp">   -115.99294573 </i>
    <i name="e_0_energy">   -115.99294573 </i>
   </energy>
  </scstep>
  <structure>
   <crystal>
    <varray name="basis" >
     <v>      15.00000000       0.00000000       0.00000000 </v>
     <v>       0.00000000      15.00000000       0.00000000 </v>
     <v>       0.00000000       0.00000000      15.00000000 </v>
    </varray>
    <i name="volume">   3375.00000000 </i>
    <varray name="rec_basis" >
     <v>       0.06666667       0.00000000       0.00000000 </v>
     <v>       0.00000000       0.06666667       0.00000000 </v>
     <v>       0.00000000       0.00000000       0.06666667 </v>
    </varray>
   </crystal>
   <varray name="positions" >
    <v>       0.37512534       0.54330485       0.58124726 </v>
    <v>       0.37302377       0.45484011       0.57074464 </v>
    <v>       0.45516120       0.40008982       0.55455405 </v>
    <v>       0.46134527       0.59389344       0.58541361 </v>
    <v>       0.53616235       0.54470456       0.53433166 </v>
    <v>       0.54265188       0.45043416       0.57669083 </v>
    <v>       0.61589597       0.59956083       0.53975565 </v>
    <v>       0.61556967       0.39464227       0.54521839 </v>
    <v>       0.30975974       0.41892637       0.57200933 </v>
    <v>       0.45320563       0.33615052       0.59067071 </v>
    <v>       0.45879466       0.38250045       0.48288401 </v>
    <v>       0.31349605       0.58160319       0.58656889 </v>
    <v>       0.48443333       0.59842701       0.65537998 </v>
    <v>       0.45421307       0.66307517       0.56239817 </v>
    <v>       0.51870134       0.53701754       0.46307630 </v>
    <v>       0.55026866       0.45889983       0.64960067 </v>
    <v>       0.67188891       0.65314359       0.54630076 </v>
    <v>       0.66568283       0.34095751       0.51959653 </v>
   </varray>
  </structure>
  <varray name="forces" >
   <v>       0.01189835       0.03267538       0.04565417 </v>
   <v>       0.01111786      -0.04906560      -0.02148441 </v>
   <v>       0.01488793      -0.05118765      -0.02987300 </v>
   <v>      -0.01099464       0.04598343       0.02800313 </v>
   <v>      -0.04990162       0.03812057       0.07032125 </v>
   <v>      -0.05807985      -0.08905668      -0.03902621 </v>
   <v>       0.05527766       0.07722270       0.02976792 </v>
   <v>       0.03170543      -0.06914054      -0.02630843 </v>
   <v>      -0.07691535       0.01461466      -0.14702832 </v>
   <v>       0.00786803       0.07585601       0.03601944 </v>
   <v>      -0.11859365      -0.11198578       0.09958013 </v>
   <v>      -0.05247381      -0.03263801       0.18642773 </v>
   <v>      -0.13461151       0.17034613      -0.01843681 </v>
   <v>      -0.00162706      -0.05081710      -0.15101515 </v>
   <v>      -0.02305485       0.03169269       0.09230890 </v>
   <v>      -0.03435370      -0.03897457      -0.10359975 </v>
   <v>       0.22402046      -0.07706796      -0.00694868 </v>
   <v>       0.20383033       0.08342232      -0.04436192 </v>
  </varray>
  <varray name="stress" >
   <v>      -0.48289796       0.03020499      -0.13507435 </v>
   <v>       0.03020499      -1.04292742       0.12640801 </v>
   <v>      -0.13507435       0.12640801      -1.35894476 </v>
  </varray>
  <energy>
   <i name="e_fr_energy">   -116.23555269 </i>
   <i name="e_wo_entrp">   -116.23555269 </i>
   <i name="e_0_energy">   -116.23555269 </i>
  </energy>
  <time name="totalsc">   37.34   38.53</time>
 </calculation>
 <calculation>
  <scstep>
   <time name="dav">    2.13    2.13</time>
   <time name="total">    3.73    3.73</time>
   <energy>
    <i name="alphaZ">      3.36120243 </i>
    <i name="ewald">   3113.89398734 </i>
    <i name="hartreedc">  -4563.07878344 </i>
    <i name="XCdc">    170.74156058 </i>
    <i name="pawpsdc">   4358.59423379 </i>
    <i name="pawaedc">  -4366.90413677 </i>
    <i name="eentropy">     -0.00000000 </i>
    <i name="bandstr">   -638.40240511 </i>
    <i name="atom">   1805.79685712 </i>
    <i name="e_fr_energy">   -115.99748406 </i>
    <i name="e_wo_entrp">   -115.99748406 </i>
    <i name="e_0_energy">   -115.99748406 </i>
   </energy>
  </scstep>
  <scstep>
   <time name="diag">    0.34    0.34</time>
   <time name="diis">    2.26    2.26</time>
   <time name="orth">    0.01    0.01</time>
   <time name="total">    4.22    4.22</time>
   <energy>
    <i name="e_fr_energy">   -115.99798147 </i>
    <i name="e_wo_entrp">   -115.99798147 </i>
    <i name="e_0_energy">   -115.99798147 </i>
   </energy>
  </scstep>
  <scstep>
   <time name="diag">    0.34    0.34</time>
   <time name="diis">    2.17    2.17</time>
   <time name="orth">    0.01    0.01</time>
   <time name="total">    4.16    4.16</time>
   <energy>
    <i name="e_fr_energy">   -115.99812195 </i>
    <i name="e_wo_entrp">   -115.99812195 </i>
    <i name="e_0_energy">   -115.99812195 </i>
   </energy>
  </scstep>
  <scstep>
   <time name="diag">    0.34    0.34</time>
   <time name="diis">    2.22    2.22</time>
   <time name="orth">    0.01    0.01</time>
   <time name="total">    4.45    4.45</time>
   <energy>
    <i name="e_fr_energy">   -115.99816413 </i>
    <i name="e_wo_entrp">   -115.99816413 </i>
    <i name="e_0_energy">   -115.99816413 </i>
   </energy>
  </scstep>
  <scstep>
   <time name="diag">    0.32    0.32</time>
   <time name="diis">    1.80    1.80</time>
   <time name="orth">    0.01    0.01</time>
   <time name="total">    3.70    3.70</time>
   <energy>
    <i name="e_fr_energy">   -115.99817456 </i>
    <i name="e_wo_entrp">   -115.99817456 </i>
    <i name="e_0_energy">   -115.99817456 </i>
   </energy>
  </scstep>
  <scstep>
   <time name="diag">    0.17    0.17</time>
   <time name="diis">    0.80    0.80</time>
   <time name="orth">    0.00    0.00</time>
   <time name="total">    1.85    1.86</time>
   <energy>
    <i name="alphaZ">      3.36120243 </i>
    <i name="ewald">   3113.89398734 </i>
    <i name="hartreedc">  -4563.08592928 </i>
    <i name="XCdc">    170.74348618 </i>
    <i name="pawpsdc">   4358.58221916 </i>
    <i name="pawaedc">  -4366.89260593 </i>
    <i name="eentropy">     -0.00000000 </i>
    <i name="bandstr">   -638.39739393 </i>
    <i name="atom">   1805.79685712 </i>
    <i name="e_fr_energy">   -115.99817691 </i>
    <i name="e_wo_entrp">   -115.99817691 </i>
    <i name="e_0_energy">   -115.99817691 </i>
   </energy>
  </scstep>
  <structure>
   <crystal>
    <varray name="basis" >
     <v>      15.00000000       0.00000000       0.00000000 </v>
     <v>       0.00000000      15.00000000       0.00000000 </v>
     <v>       0.00000000       0.00000000      15.00000000 </v>
    </varray>
    <i name="volume">   3375.00000000 </i>
    <varray name="rec_basis" >
     <v>       0.06666667       0.00000000       0.00000000 </v>
     <v>       0.00000000       0.06666667       0.00000000 </v>
     <v>       0.00000000       0.00000000       0.06666667 </v>
    </varray>
   </crystal>
   <varray name="positions" >
    <v>       0.37514372       0.54327970       0.58125452 </v>
    <v>       0.37305978       0.45483580       0.57066122 </v>
    <v>       0.45520892       0.40006284       0.55442492 </v>
    <v>       0.46132435       0.59396256       0.58540836 </v>
    <v>       0.53618657       0.54475261       0.53448694 </v>
    <v>       0.54261356       0.45035642       0.57674423 </v>
    <v>       0.61602584       0.59968719       0.53993555 </v>
    <v>       0.61572994       0.39458216       0.54545338 </v>
    <v>       0.30971347       0.41892915       0.57180482 </v>
    <v>       0.45319530       0.33613099       0.59045082 </v>
    <v>       0.45879758       0.38257814       0.48278838 </v>
    <v>       0.31344539       0.58154591       0.58675794 </v>
    <v>       0.48423415       0.59870455       0.65536918 </v>
    <v>       0.45419893       0.66303036       0.56214704 </v>
    <v>       0.51881450       0.53703305       0.46322403 </v>
    <v>       0.55007626       0.45887657       0.64964369 </v>
    <v>       0.67212904       0.65307634       0.54647555 </v>
    <v>       0.66609509       0.34109143       0.51995337 </v>
   </varray>
  </structure>
  <varray name="forces" >
   <v>      -0.00995208       0.05803543       0.05064264 </v>
   <v>      -0.01367768      -0.07370419      -0.02642714 </v>
   <v>      -0.00723199      -0.02366417      -0.01713790 </v>
   <v>      -0.02074433       0.02299553       0.01639380 </v>
   <v>       0.00081677       0.04363784       0.06309110 </v>
   <v>      -0.01997474      -0.07167039      -0.04886874 </v>
   <v>      -0.05440366      -0.03437238       0.02297477 </v>
   <v>      -0.00500974      -0.02481820      -0.01377940 </v>
   <v>      -0.04630990       0.02795228      -0.14199224 </v>
   <v>       0.00679011       0.05560857       0.04742606 </v>
   <v>      -0.10963163      -0.11696278       0.07459795 </v>
   <v>      -0.02880941      -0.04575587       0.17944010 </v>
   <v>      -0.12188719       0.17056824      -0.00064923 </v>
   <v>      -0.00736793      -0.03572694      -0.15034559 </v>
   <v>      -0.02197520       0.03807488       0.08672435 </v>
   <v>      -0.03328681      -0.04729588      -0.09276159 </v>
   <v>       0.28346465      -0.01199651      -0.00000552 </v>
   <v>       0.20919077       0.06909455      -0.04932344 </v>
  </varray>
  <varray name="stress" >
   <v>      -0.51934582       0.04304136      -0.12361966 </v>
   <v>       0.04304136      -1.05464538       0.12186701 </v>
   <v>      -0.12361966       0.12186701      -1.32205920 </v>
  </varray>
  <energy>
   <i name="e_fr_energy">   -116.24074410 </i>
   <i name="e_wo_entrp">   -116.24074410 </i>
   <i name="e_0_energy">   -116.24074410 </i>
  </energy>
  <time name="totalsc">   43.64   44.22</time>
 </calculation>
 <calculation>
  <scstep>
   <time name="dav">    3.31    3.55</time>
   <time name="total">    6.11    6.65</time>
   <energy>
    <i name="alphaZ">      3.36120243 </i>
    <i name="ewald">   3109.91626237 </i>
    <i name="hartreedc">  -4559.54240227 </i>
    <i name="XCdc">    170.71599576 </i>
    <i name="pawpsdc">   4358.49516163 </i>
    <i name="pawaedc">  -4366.80554769 </i>
    <i name="eentropy">     -0.00000000 </i>
    <i name="bandstr">   -637.94179477 </i>
    <i name="atom">   1805.79685712 </i>
    <i name="e_fr_energy">   -116.00426542 </i>
    <i name="e_wo_entrp">   -116.00426542 </i>
    <i name="e_0_energy">   -116.00426542 </i>
   </energy>
  </scstep>
  <scstep>
   <time name="diag">    0.66    0.66</time>
   <time name="diis">    3.48    3.48</time>
   <time name="orth">    0.02    0.03</time>
   <time name="total">    6.42    6.44</time>
   <energy>
    <i name="e_fr_energy">   -116.00626456 </i>
    <i name="e_wo_entrp">   -116.00626456 </i>
    <i name="e_0_energy">   -116.00626456 </i>
   </energy>
  </scstep>
  <scstep>
   <time name="diag">    0.81    1.04</time>
   <time name="diis">    4.45    4.79</time>
   <time name="orth">    0.02    0.02</time>
   <time name="total">    8.58    9.65</time>
   <energy>
    <i name="e_fr_energy">   -116.00669555 </i>
    <i name="e_wo_entrp">   -116.00669555 </i>
    <i name="e_0_energy">   -116.00669555 </i>
   </energy>
  </scstep>
  <scstep>
   <time name="diag">    0.79    0.79</time>
   <time name="diis">    3.70    3.70</time>
   <time name="orth">    0.02    0.03</time>
   <time name="total">    7.81    7.82</time>
   <energy>
    <i name="e_fr_energy">   -116.00683859 </i>
    <i name="e_wo_entrp">   -116.00683859 </i>
    <i name="e_0_energy">   -116.00683859 </i>
   </energy>
  </scstep>
  <scstep>
   <time name="diag">    0.43    0.43</time>
   <time name="diis">    2.05    2.05</time>
   <time name="orth">    0.01    0.01</time>
   <time name="total">    4.71    4.72</time>
   <energy>
    <i name="e_fr_energy">   -116.00688179 </i>
    <i name="e_wo_entrp">   -116.00688179 </i>
    <i name="e_0_energy">   -116.00688179 </i>
   </energy>
  </scstep>
  <scstep>
   <time name="diag">    0.53    0.53</time>
   <time name="diis">    1.78    1.90</time>
   <time name="orth">    0.02    0.02</time>
   <time name="total">    4.55    4.70</time>
   <energy>
    <i name="e_fr_energy">   -116.00689332 </i>
    <i name="e_wo_entrp">   -116.00689332 </i>
    <i name="e_0_energy">   -116.00689332 </i>
   </energy>
  </scstep>
  <scstep>
   <time name="diag">    0.26    0.26</time>
   <time name="diis">    1.72    1.74</time>
   <time name="orth">    0.01    0.01</time>
   <time name="total">    3.70    3.76</time>
   <energy>
    <i name="alphaZ">      3.36120243 </i>
    <i name="ewald">   3109.91626237 </i>
    <i name="hartreedc">  -4559.23252180 </i>
    <i name="XCdc">    170.70340056 </i>
    <i name="pawpsdc">   4350.40646180 </i>
    <i name="pawaedc">  -4358.71187851 </i>
    <i name="eentropy">     -0.00000000 </i>
    <i name="bandstr">   -638.24668411 </i>
    <i name="atom">   1805.79685712 </i>
    <i name="e_fr_energy">   -116.00690014 </i>
    <i name="e_wo_entrp">   -116.00690014 </i>
    <i name="e_0_energy">   -116.00690014 </i>
   </energy>
  </scstep>
  <structure>
   <crystal>
    <varray name="basis" >
     <v>      15.00000000       0.00000000       0.00000000 </v>
     <v>       0.00000000      15.00000000       0.00000000 </v>
     <v>       0.00000000       0.00000000      15.00000000 </v>
    </varray>
    <i name="volume">   3375.00000000 </i>
    <varray name="rec_basis" >
     <v>       0.06666667       0.00000000       0.00000000 </v>
     <v>       0.00000000       0.06666667       0.00000000 </v>
     <v>       0.00000000       0.00000000       0.06666667 </v>
    </varray>
   </crystal>
   <varray name="positions" >
    <v>       0.37514690       0.54324241       0.58131679 </v>
    <v>       0.37309072       0.45481410       0.57046513 </v>
    <v>       0.45527679       0.40002035       0.55418592 </v>
    <v>       0.46127375       0.59408496       0.58538389 </v>
    <v>       0.53630439       0.54484630       0.53475413 </v>
    <v>       0.54260870       0.45022972       0.57685751 </v>
    <v>       0.61618419       0.59984933       0.54029533 </v>
    <v>       0.61600592       0.39449160       0.54589531 </v>
    <v>       0.30964649       0.41894017       0.57143052 </v>
    <v>       0.45317549       0.33603934       0.59005589 </v>
    <v>       0.45880691       0.38273542       0.48254933 </v>
    <v>       0.31336240       0.58143494       0.58709533 </v>
    <v>       0.48386161       0.59921879       0.65538104 </v>
    <v>       0.45417172       0.66299544       0.56165758 </v>
    <v>       0.51901327       0.53705694       0.46347305 </v>
    <v>       0.54970188       0.45884373       0.64978244 </v>
    <v>       0.67264537       0.65301853       0.54681472 </v>
    <v>       0.66689925       0.34131908       0.52063775 </v>
   </varray>
  </structure>
  <varray name="forces" >
   <v>      -0.02281260       0.06705558       0.03851097 </v>
   <v>      -0.02907456      -0.07958142      -0.02073139 </v>
   <v>      -0.02920814       0.00675733      -0.00734798 </v>
   <v>      -0.03069354       0.00000397       0.00955667 </v>
   <v>       0.01587158       0.02220825       0.05231258 </v>
   <v>       0.00245070      -0.04076861      -0.05263138 </v>
   <v>       0.05850803       0.04517126       0.03606265 </v>
   <v>       0.02239106      -0.03562006      -0.02940905 </v>
   <v>      -0.01429340       0.03927503      -0.13489001 </v>
   <v>       0.00376366       0.04302898       0.05412341 </v>
   <v>      -0.09372919      -0.12173084       0.05378835 </v>
   <v>      -0.00461650      -0.05787423       0.17071736 </v>
   <v>      -0.10374850       0.17143536       0.01045761 </v>
   <v>      -0.01704520      -0.03264518      -0.14161456 </v>
   <v>      -0.01419434       0.04908258       0.08502058 </v>
   <v>      -0.02896566      -0.06289626      -0.09009938 </v>
   <v>       0.13906320      -0.13237969      -0.01347958 </v>
   <v>       0.14633339       0.11947793      -0.02034685 </v>
  </varray>
  <varray name="stress" >
   <v>      -0.68182373       0.01115858      -0.10624706 </v>
   <v>       0.01115858      -1.20955951       0.09469351 </v>
   <v>      -0.10624706       0.09469351      -1.30740306 </v>
  </varray>
  <energy>
   <i name="e_fr_energy">   -116.24937045 </i>
   <i name="e_wo_entrp">   -116.24937045 </i>
   <i name="e_0_energy">   -116.24937045 </i>
  </energy>
  <time name="totalsc">   53.83   56.45</time>
 </calculation>
 <calculation>
  <scstep>
   <time name="dav">    4.77    4.84</time>
   <time name="total">    7.20    7.28</time>
   <energy>
    <i name="alphaZ">      3.36120243 </i>
    <i name="ewald">   3111.28914843 </i>
    <i name="hartreedc">  -4560.22469120 </i>
    <i name="XCdc">    170.72926607 </i>
    <i name="pawpsdc">   4349.94199327 </i>
    <i name="pawaedc">  -4358.24737095 </i>
[...]
   <v>       0.00002006      -0.00074339       0.00233829 </v>
   <v>      -0.00015221      -0.00128059       0.00465184 </v>
   <v>      -0.00070051      -0.00006941      -0.00201142 </v>
   <v>      -0.00178465       0.00141307      -0.00589105 </v>
   <v>       0.00095176      -0.00059915      -0.00048553 </v>
   <v>      -0.00055928      -0.00094931      -0.00074494 </v>
   <v>      -0.00035954      -0.00398506       0.00555357 </v>
   <v>      -0.00197513       0.00324949       0.00085068 </v>
   <v>       0.00032394      -0.00178390       0.01245342 </v>
   <v>       0.00010153      -0.00344241      -0.00706816 </v>
   <v>      -0.00269612       0.00540134      -0.00383739 </v>
   <v>       0.00096258      -0.00173509       0.00802174 </v>
   <v>      -0.00223452       0.01139520      -0.00832255 </v>
   <v>      -0.00491438      -0.00327176      -0.01399968 </v>
   <v>       0.00566893      -0.00076389      -0.00135425 </v>
   <v>      -0.00248199      -0.00122278      -0.00027622 </v>
   <v>       0.00471050      -0.00557524       0.01201177 </v>
   <v>       0.00511904       0.00396287      -0.00189013 </v>
  </varray>
  <varray name="stress" >
   <v>      -1.20516057       0.00144455      -0.00794241 </v>
   <v>       0.00144455      -1.17590483       0.01506713 </v>
   <v>      -0.00794241       0.01506713      -1.19581983 </v>
  </varray>
  <energy>
   <i name="e_fr_energy">   -116.38982515 </i>
   <i name="e_wo_entrp">   -116.38982515 </i>
   <i name="e_0_energy">   -116.38982515 </i>
  </energy>
  <time name="totalsc">   33.64   34.54</time>
 </calculation>
 <calculation>
  <scstep>
   <time name="dav">    3.12    3.25</time>
   <time name="total">    5.30    5.71</time>
   <energy>
    <i name="alphaZ">      3.36120243 </i>
    <i name="ewald">   3110.20903467 </i>
    <i name="hartreedc">  -4560.58877499 </i>
    <i name="XCdc">    170.67102616 </i>
    <i name="pawpsdc">   4348.50304720 </i>
    <i name="pawaedc">  -4356.80586327 </i>
    <i name="eentropy">     -0.00000000 </i>
    <i name="bandstr">   -637.29371776 </i>
    <i name="atom">   1805.79685712 </i>
    <i name="e_fr_energy">   -116.14718845 </i>
    <i name="e_wo_entrp">   -116.14718845 </i>
    <i name="e_0_energy">   -116.14718845 </i>
   </energy>
  </scstep>
  <scstep>
   <time name="diag">    0.52    0.59</time>
   <time name="diis">    1.59    1.61</time>
   <time name="orth">    0.01    0.01</time>
   <time name="total">    4.02    4.21</time>
   <energy>
    <i name="alphaZ">      3.36120243 </i>
    <i name="ewald">   3110.20903467 </i>
    <i name="hartreedc">  -4560.58666678 </i>
    <i name="XCdc">    170.67084744 </i>
    <i name="pawpsdc">   4348.45191803 </i>
    <i name="pawaedc">  -4356.75468485 </i>
    <i name="eentropy">     -0.00000000 </i>
    <i name="bandstr">   -637.29569681 </i>
    <i name="atom">   1805.79685712 </i>
    <i name="e_fr_energy">   -116.14718876 </i>
    <i name="e_wo_entrp">   -116.14718876 </i>
    <i name="e_0_energy">   -116.14718876 </i>
   </energy>
  </scstep>
  <structure>
   <crystal>
    <varray name="basis" >
     <v>      15.00000000       0.00000000       0.00000000 </v>
     <v>       0.00000000      15.00000000       0.00000000 </v>
     <v>       0.00000000       0.00000000      15.00000000 </v>
    </varray>
    <i name="volume">   3375.00000000 </i>
    <varray name="rec_basis" >
     <v>       0.06666667       0.00000000       0.00000000 </v>
     <v>       0.00000000       0.06666667       0.00000000 </v>
     <v>       0.00000000       0.00000000       0.06666667 </v>
    </varray>
   </crystal>
   <varray name="positions" >
    <v>       0.37445089       0.54260542       0.58570684 </v>
    <v>       0.37170187       0.45455340       0.57158231 </v>
    <v>       0.45263055       0.39815131       0.55485802 </v>
    <v>       0.45904575       0.59607619       0.58361383 </v>
    <v>       0.53451276       0.54513629       0.53568826 </v>
    <v>       0.54045819       0.44864614       0.57376282 </v>
    <v>       0.61864372       0.59351945       0.54299658 </v>
    <v>       0.61621379       0.39905146       0.53801823 </v>
    <v>       0.30758097       0.41990808       0.57182111 </v>
    <v>       0.45066688       0.33790089       0.59685584 </v>
    <v>       0.45280249       0.37366777       0.48541198 </v>
    <v>       0.31273403       0.57906454       0.59879424 </v>
    <v>       0.48069585       0.61325680       0.65190239 </v>
    <v>       0.44811777       0.66019321       0.54958740 </v>
    <v>       0.51796656       0.53989671       0.46413066 </v>
    <v>       0.54990243       0.45432640       0.64655383 </v>
    <v>       0.68456041       0.63423797       0.55010910 </v>
    <v>       0.67483094       0.35755735       0.50808540 </v>
   </varray>
  </structure>
  <varray name="forces" >
   <v>       0.00007908      -0.00090077       0.00218423 </v>
   <v>      -0.00029146      -0.00072782       0.00432069 </v>
   <v>      -0.00110159      -0.00011657      -0.00219097 </v>
   <v>      -0.00145593       0.00136126      -0.00589715 </v>
   <v>       0.00023278      -0.00055260      -0.00064895 </v>
   <v>      -0.00163026      -0.00077276      -0.00052141 </v>
   <v>       0.00345749      -0.00135565       0.00624985 </v>
   <v>       0.00426484      -0.00131080      -0.00224590 </v>
   <v>       0.00031340      -0.00178090       0.01310518 </v>
   <v>       0.00027880      -0.00350700      -0.00699353 </v>
   <v>      -0.00286392       0.00568101      -0.00369600 </v>
   <v>       0.00096710      -0.00157629       0.00841517 </v>
   <v>      -0.00212379       0.01180210      -0.00854033 </v>
   <v>      -0.00497253      -0.00322035      -0.01429036 </v>
   <v>       0.00594796      -0.00067784      -0.00124767 </v>
   <v>      -0.00236383      -0.00127289      -0.00032423 </v>
   <v>       0.00112293      -0.00931767       0.01315305 </v>
   <v>       0.00013893       0.00824553      -0.00083167 </v>
  </varray>
  <varray name="stress" >
   <v>      -1.20813161       0.00177401      -0.00762422 </v>
   <v>       0.00177401      -1.17802731       0.01443251 </v>
   <v>      -0.00762422       0.01443251      -1.19653211 </v>
  </varray>
  <energy>
   <i name="e_fr_energy">   -116.38983156 </i>
   <i name="e_wo_entrp">   -116.38983156 </i>
   <i name="e_0_energy">   -116.38983156 </i>
  </energy>
  <time name="totalsc">   21.72   22.45</time>
 </calculation>
 <calculation>
  <scstep>
   <time name="dav">    3.16    3.16</time>
   <time name="total">    5.22    5.22</time>
   <energy>
    <i name="alphaZ">      3.36120243 </i>
    <i name="ewald">   3110.22713539 </i>
    <i name="hartreedc">  -4560.59700951 </i>
    <i name="XCdc">    170.67104946 </i>
    <i name="pawpsdc">   4348.39390396 </i>
    <i name="pawaedc">  -4356.69662572 </i>
    <i name="eentropy">     -0.00000000 </i>
    <i name="bandstr">   -637.30371237 </i>
    <i name="atom">   1805.79685712 </i>
    <i name="e_fr_energy">   -116.14719925 </i>
    <i name="e_wo_entrp">   -116.14719925 </i>
    <i name="e_0_energy">   -116.14719925 </i>
   </energy>
  </scstep>
  <scstep>
   <time name="diag">    0.45    0.45</time>
   <time name="diis">    1.68    1.69</time>
   <time name="orth">    0.02    0.02</time>
   <time name="total">    3.73    3.76</time>
   <energy>
    <i name="alphaZ">      3.36120243 </i>
    <i name="ewald">   3110.22713539 </i>
    <i name="hartreedc">  -4560.59984925 </i>
    <i name="XCdc">    170.67122383 </i>
    <i name="pawpsdc">   4348.41089063 </i>
    <i name="pawaedc">  -4356.71365116 </i>
    <i name="eentropy">     -0.00000000 </i>
    <i name="bandstr">   -637.30100868 </i>
    <i name="atom">   1805.79685712 </i>
    <i name="e_fr_energy">   -116.14719967 </i>
    <i name="e_wo_entrp">   -116.14719967 </i>
    <i name="e_0_energy">   -116.14719967 </i>
   </energy>
  </scstep>
  <structure>
   <crystal>
    <varray name="basis" >
     <v>      15.00000000       0.00000000       0.00000000 </v>
     <v>       0.00000000      15.00000000       0.00000000 </v>
     <v>       0.00000000       0.00000000      15.00000000 </v>
    </varray>
    <i name="volume">   3375.00000000 </i>
    <varray name="rec_basis" >
     <v>       0.06666667       0.00000000       0.00000000 </v>
     <v>       0.00000000       0.06666667       0.00000000 </v>
     <v>       0.00000000       0.00000000       0.06666667 </v>
    </varray>
   </crystal>
   <varray name="positions" >
    <v>       0.37445091       0.54260493       0.58570816 </v>
    <v>       0.37170168       0.45455292       0.57158493 </v>
    <v>       0.45262990       0.39815121       0.55485682 </v>
    <v>       0.45904486       0.59607700       0.58361040 </v>
    <v>       0.53451291       0.54513598       0.53568787 </v>
    <v>       0.54045732       0.44864570       0.57376251 </v>
    <v>       0.61864551       0.59351845       0.54300008 </v>
    <v>       0.61621582       0.39905107       0.53801703 </v>
    <v>       0.30758110       0.41990704       0.57182873 </v>
    <v>       0.45066698       0.33789884       0.59685194 </v>
    <v>       0.45280073       0.37367092       0.48540983 </v>
    <v>       0.31273454       0.57906363       0.59879909 </v>
    <v>       0.48069460       0.61326364       0.65189746 </v>
    <v>       0.44811485       0.66019134       0.54957912 </v>
    <v>       0.51796991       0.53989630       0.46412986 </v>
    <v>       0.54990115       0.45432568       0.64655368 </v>
    <v>       0.68456145       0.63423266       0.55011662 </v>
    <v>       0.67483139       0.35756192       0.50808451 </v>
   </varray>
  </structure>
  <varray name="forces" >
   <v>       0.00024303      -0.00064962       0.00223565 </v>
   <v>      -0.00015629      -0.00104225       0.00447259 </v>
   <v>      -0.00093463      -0.00012116      -0.00197531 </v>
   <v>      -0.00149190       0.00138047      -0.00579574 </v>
   <v>       0.00067189      -0.00035524      -0.00043405 </v>
   <v>      -0.00087532      -0.00128217      -0.00066624 </v>
   <v>      -0.00064852      -0.00375895       0.00554739 </v>
   <v>      -0.00187813       0.00294137       0.00090679 </v>
   <v>       0.00037866      -0.00178077       0.01301064 </v>
   <v>       0.00034566      -0.00347663      -0.00699507 </v>
   <v>      -0.00278878       0.00560083      -0.00380649 </v>
   <v>       0.00103815      -0.00157408       0.00836906 </v>
   <v>      -0.00204234       0.01173808      -0.00852115 </v>
   <v>      -0.00486598      -0.00335432      -0.01422197 </v>
   <v>       0.00594593      -0.00069615      -0.00149700 </v>
   <v>      -0.00228089      -0.00132384      -0.00049039 </v>
   <v>       0.00433362      -0.00700764       0.01304623 </v>
   <v>       0.00500584       0.00476205      -0.00318493 </v>
  </varray>
  <varray name="stress" >
   <v>      -1.20469720       0.00151835      -0.00796865 </v>
   <v>       0.00151835      -1.17542657       0.01501805 </v>
   <v>      -0.00796865       0.01501806      -1.19464952 </v>
  </varray>
  <energy>
   <i name="e_fr_energy">   -116.38984362 </i>
   <i name="e_wo_entrp">   -116.38984362 </i>
   <i name="e_0_energy">   -116.38984362 </i>
  </energy>
  <time name="totalsc">   20.42   21.32</time>
 </calculation>
 <calculation>
  <scstep>
   <time name="dav">    2.73    2.73</time>
   <time name="total">    5.15    5.16</time>
   <energy>
    <i name="alphaZ">      3.36120243 </i>
    <i name="ewald">   3110.24530895 </i>
    <i name="hartreedc">  -4560.63360473 </i>
    <i name="XCdc">    170.67087694 </i>
    <i name="pawpsdc">   4348.43234983 </i>
    <i name="pawaedc">  -4356.73514609 </i>
    <i name="eentropy">     -0.00000000 </i>
    <i name="bandstr">   -637.28513125 </i>
    <i name="atom">   1805.79685712 </i>
    <i name="e_fr_energy">   -116.14728680 </i>
    <i name="e_wo_entrp">   -116.14728680 </i>
    <i name="e_0_energy">   -116.14728680 </i>
   </energy>
  </scstep>
  <scstep>
   <time name="diag">    0.53    0.59</time>
   <time name="diis">    2.90    3.36</time>
   <time name="orth">    0.02    0.02</time>
   <time name="total">    5.65    6.45</time>
   <energy>
    <i name="e_fr_energy">   -116.14729826 </i>
    <i name="e_wo_entrp">   -116.14729826 </i>
    <i name="e_0_energy">   -116.14729826 </i>
   </energy>
  </scstep>
  <scstep>
   <time name="diag">    0.65    0.65</time>
   <time name="diis">    4.64    4.65</time>
   <time name="orth">    0.01    0.01</time>
   <time name="total">    6.91    7.24</time>
   <energy>
    <i name="alphaZ">      3.36120243 </i>
    <i name="ewald">   3110.24530895 </i>
    <i name="hartreedc">  -4560.62432144 </i>
    <i name="XCdc">    170.67026755 </i>
    <i name="pawpsdc">   4348.31668895 </i>
    <i name="pawaedc">  -4356.61928038 </i>
    <i name="eentropy">     -0.00000000 </i>
    <i name="bandstr">   -637.29402451 </i>
    <i name="atom">   1805.79685712 </i>
    <i name="e_fr_energy">   -116.14730133 </i>
    <i name="e_wo_entrp">   -116.14730133 </i>
    <i name="e_0_energy">   -116.14730133 </i>
   </energy>
  </scstep>
  <structure>
   <crystal>
    <varray name="basis" >
     <v>      15.00000000       0.00000000       0.00000000 </v>
     <v>       0.00000000      15.00000000       0.00000000 </v>
     <v>       0.00000000       0.00000000      15.00000000 </v>
    </varray>
    <i name="volume">   3375.00000000 </i>
    <varray name="rec_basis" >
     <v>       0.06666667       0.00000000       0.00000000 </v>
     <v>       0.00000000       0.06666667       0.00000000 </v>
     <v>       0.00000000       0.00000000       0.06666667 </v>
    </varray>
   </crystal>
   <varray name="positions" >
    <v>       0.37445269       0.54260085       0.58571739 </v>
    <v>       0.37170185       0.45454811       0.57160356 </v>
    <v>       0.45262649       0.39815178       0.55484123 </v>
    <v>       0.45903727       0.59608478       0.58357929 </v>
    <v>       0.53451847       0.54513462       0.53568864 </v>
    <v>       0.54045201       0.44864007       0.57376295 </v>
    <v>       0.61864895       0.59350340       0.54303769 </v>
    <v>       0.61621920       0.39906147       0.53802933 </v>
    <v>       0.30758461       0.41989733       0.57189263 </v>
    <v>       0.45066860       0.33787783       0.59680503 </v>
    <v>       0.45279192       0.37370796       0.48538283 </v>
    <v>       0.31274060       0.57905437       0.59884232 </v>
    <v>       0.48068122       0.61332843       0.65185222 </v>
    <v>       0.44808925       0.66017369       0.54950161 </v>
    <v>       0.51800810       0.53989306       0.46412498 </v>
    <v>       0.54988200       0.45431958       0.64655650 </v>
    <v>       0.68458019       0.63419492       0.55019575 </v>
    <v>       0.67486013       0.35759271       0.50808942 </v>
   </varray>
  </structure>
  <varray name="forces" >
   <v>       0.00004881      -0.00011666       0.00281483 </v>
   <v>      -0.00007420      -0.00134661       0.00517762 </v>
   <v>      -0.00061564       0.00005722      -0.00169862 </v>
   <v>      -0.00231546       0.00203154      -0.00657967 </v>
   <v>      -0.00069914      -0.00169825      -0.00003045 </v>
   <v>      -0.00222460       0.00123438       0.00061002 </v>
   <v>       0.00906923       0.00137047       0.00671606 </v>
   <v>       0.01427977      -0.00851476      -0.00788296 </v>
   <v>       0.00011381      -0.00176327       0.01250464 </v>
   <v>       0.00022358      -0.00320670      -0.00636926 </v>
   <v>      -0.00261889       0.00507786      -0.00416407 </v>
   <v>       0.00085323      -0.00144013       0.00818313 </v>
   <v>      -0.00191361       0.01128569      -0.00744783 </v>
   <v>      -0.00444495      -0.00381837      -0.01324464 </v>
   <v>       0.00509757      -0.00073842      -0.00207904 </v>
   <v>      -0.00232753      -0.00130013      -0.00052872 </v>
   <v>      -0.00305858      -0.01044123       0.01032585 </v>
   <v>      -0.00939338       0.01332739       0.00369309 </v>
  </varray>
  <varray name="stress" >
   <v>      -1.21259585       0.00368942      -0.00611212 </v>
   <v>       0.00368942      -1.17904063       0.01369268 </v>
   <v>      -0.00611212       0.01369268      -1.19612160 </v>
  </varray>
  <energy>
   <i name="e_fr_energy">   -116.38994633 </i>
   <i name="e_wo_entrp">   -116.38994633 </i>
   <i name="e_0_energy">   -116.38994633 </i>
  </energy>
  <time name="totalsc">   31.85   33.90</time>
  <eigenvalues>
   <array>
    <dimension dim="1">band</dimension>
    <dimension dim="2">kpoint</dimension>
    <dimension dim="3">spin</dimension>
    <field>eigene</field>
    <field>occ</field>
    <set>
     <set comment="spin 1">
      <set comment="kpoint 1">
       <r>  -22.8260    1.0000 </r>
       <r>  -22.4589    1.0000 </r>
       <r>  -21.7484    1.0000 </r>
       <r>  -19.6529    1.0000 </r>
       <r>  -19.6133    1.0000 </r>
       <r>  -16.8304    1.0000 </r>
       <r>  -16.3666    1.0000 </r>
       <r>  -13.9581    1.0000 </r>
       <r>  -13.7500    1.0000 </r>
       <r>  -12.8792    1.0000 </r>
       <r>  -11.8375    1.0000 </r>
       <r>  -11.4878    1.0000 </r>
       <r>  -11.0580    1.0000 </r>
       <r>  -10.5437    1.0000 </r>
       <r>  -10.4155    1.0000 </r>
       <r>   -9.6061    1.0000 </r>
       <r>   -9.2894    1.0000 </r>
       <r>   -9.0124    1.0000 </r>
       <r>   -8.4687    1.0000 </r>
       <r>   -8.3839    1.0000 </r>
       <r>   -8.2678    1.0000 </r>
       <r>   -7.9800    1.0000 </r>
       <r>   -7.8578    1.0000 </r>
       <r>   -7.7998    1.0000 </r>
       <r>   -6.5549    1.0000 </r>
       <r>   -1.3469    0.0000 </r>
       <r>   -0.7897    0.0000 </r>
       <r>   -0.7284    0.0000 </r>
       <r>   -0.6319    0.0000 </r>
       <r>   -0.2876    0.0000 </r>
       <r>   -0.2517    0.0000 </r>
       <r>   -0.1542    0.0000 </r>
       <r>   -0.0371    0.0000 </r>
       <r>    0.1828    0.0000 </r>
       <r>    0.4430    0.0000 </r>
      </set>
     </set>
    </set>
   </array>
  </eigenvalues>
  <separator name="orbital magnetization" >
   <v name="MAGDIPOLOUT">      0.00000000      0.00000000      0.00000000</v>
  </separator>
 </calculation>
 <structure name="finalpos" >
  <crystal>
   <varray name="basis" >
    <v>      15.00000000       0.00000000       0.00000000 </v>
    <v>       0.00000000      15.00000000       0.00000000 </v>
    <v>       0.00000000       0.00000000      15.00000000 </v>
   </varray>
   <i name="volume">   3375.00000000 </i>
   <varray name="rec_basis" >
    <v>       0.06666667       0.00000000       0.00000000 </v>
    <v>       0.00000000       0.06666667       0.00000000 </v>
    <v>       0.00000000       0.00000000       0.06666667 </v>
   </varray>
  </crystal>
  <varray name="positions" >
   <v>       0.37445269       0.54260085       0.58571739 </v>
   <v>       0.37170185       0.45454811       0.57160356 </v>
   <v>       0.45262649       0.39815178       0.55484123 </v>
   <v>       0.45903727       0.59608478       0.58357929 </v>
   <v>       0.53451847       0.54513462       0.53568864 </v>
   <v>       0.54045201       0.44864007       0.57376295 </v>
   <v>       0.61864895       0.59350340       0.54303769 </v>
   <v>       0.61621920       0.39906147       0.53802933 </v>
   <v>       0.30758461       0.41989733       0.57189263 </v>
   <v>       0.45066860       0.33787783       0.59680503 </v>
   <v>       0.45279192       0.37370796       0.48538283 </v>
   <v>       0.31274060       0.57905437       0.59884232 </v>
   <v>       0.48068122       0.61332843       0.65185222 </v>
   <v>       0.44808925       0.66017369       0.54950161 </v>
   <v>       0.51800810       0.53989306       0.46412498 </v>
   <v>       0.54988200       0.45431958       0.64655650 </v>
   <v>       0.68458019       0.63419492       0.55019575 </v>
   <v>       0.67486013       0.35759271       0.50808942 </v>
  </varray>
 </structure>
</modeling>
