16
Lattice="21.6911 0.0 0.0 0.0 17.1871 0.0 0.0 0.0 16.8088" Properties=species:S:1:pos:R:3:momenta:R:3:forces:R:3:magmoms:R:1 energy=-85.04143396 stress="0.0003855228892876877 0.00011266036319383546 -0.00020070777205538913 0.00011266036319383546 6.894833476276875e-05 -0.000409948148957536 -0.00020070777205538913 -0.000409948148957536 0.00016167078375582797" dipole="_JSON [[0.0, 0.0, 0.0]]" magmom=0.0 free_energy=-85.04143396 pbc="T T T"
N        8.19316434       8.31043256       8.60703468      -1.03663038       0.40492412      -0.38264859       1.18236369      -0.25272558       0.25822952       0.00000000
C       10.78688131       8.12597547       8.27133914       0.57598436      -0.08260617      -0.31572541      -0.23539326       0.84358945       1.48085199       0.00000000
C       12.07485242       8.99298237       8.51474783      -0.48403266      -0.95691893      -0.33485709      -0.33512779       0.31477445       0.45652412       0.00000000
C        9.49482229       8.98977506       8.21964135       0.14815583      -0.15699346       0.09329231      -0.44730985      -0.40868925      -0.34596252       0.00000000
C       13.35832612       8.18361249       8.38101392       0.21067660       0.41413355      -0.18715716       0.13862073       0.82934183      -1.11483270       0.00000000
H       10.90789661       7.45557638       7.42940050       0.03278539       0.11290004       0.13835828      -0.07571865      -0.23783627      -0.55243271       0.00000000
H       10.64478552       7.48546135       9.20015025       0.15537367       0.02615450       0.08761513       0.37994575       0.30259697      -0.82619290       0.00000000
H       12.01879488       9.27095921       9.59274517      -0.00177689       0.08091939      -0.14536309      -0.07961337       0.29438548      -0.39108408       0.00000000
H       12.15422243       9.97957971       7.93552345       0.09541954       0.10942663       0.13116916      -0.39735727      -1.23315112       0.39693245       0.00000000
H        9.60877870       9.79582522       8.91778596      -0.07596173      -0.10015765       0.16627795       0.22734245       0.78050399       0.58461789       0.00000000
H        9.36944930       9.48448759       7.22993427       0.09596549       0.24134204       0.13314677      -0.03079641      -0.39231505       0.22204308       0.00000000
H       14.22188858       8.75999589       8.72559254      -0.01070044       0.05601470      -0.12189123       0.13147277      -0.03117687       0.28263374       0.00000000
H       13.28206484       7.25343247       8.90448622      -0.01456214       0.05112218       0.14984922       0.06681522      -0.78448908       0.60128282       0.00000000
H       13.58284192       7.95051721       7.32930819      -0.06458028      -0.05889300       0.34262919      -0.11745252      -0.10882136      -0.08739386       0.00000000
H        8.17743896       8.18623754       9.64136799       0.25623684      -0.04915323       0.05236600       0.07385176       0.51775487      -0.47754198       0.00000000
H        8.36909093       7.34168146       8.34468927       0.11764680      -0.09221472       0.19293856      -0.48164325      -0.43374247      -0.48767484       0.00000000
