<?xml version="1.0" encoding="ISO-8859-1"?>
<modeling>
 <generator>
  <i name="program" type="string">vasp </i>
  <i name="version" type="string">6.3.2  </i>
  <i name="subversion" type="string">27Jun22 (build Oct 05 2023 17:59:42) gamma-only                       parallel </i>
  <i name="platform" type="string">LinuxIFC </i>
  <i name="date" type="string">2024 04 09 </i>
  <i name="time" type="string">10:49:28 </i>
 </generator>
 <incar>
  <i type="string" name="PREC">NORMAL</i>
  <i type="string" name="ALGO">Fast</i>
  <i type="int" name="ISPIN">     1</i>
  <i type="int" name="IBRION">     1</i>
  <i name="EDIFF">      0.00001000</i>
  <i name="EDIFFG">     -0.05000000</i>
  <i type="int" name="NSW">  5000</i>
  <i name="ENCUT">    400.00000000</i>
  <i name="POTIM">      0.10000000</i>
  <i type="int" name="ISMEAR">     0</i>
  <i name="SIGMA">      0.05000000</i>
  <i type="logical" name="LWAVE"> F  </i>
  <i type="logical" name="LCHARG"> F  </i>
  <i type="string" name="GGA">PE</i>
  <i type="int" name="IVDW">    11</i>
  <i name="SPRING">     -5.00000000</i>
 </incar>
 <primitive_cell>
  <structure name="primitive_cell" >
   <crystal>
    <varray name="basis" >
     <v>      15.00000000       0.00000000       0.00000000 </v>
     <v>       0.00000000      15.00000000       0.00000000 </v>
     <v>       0.00000000       0.00000000      15.00000000 </v>
    </varray>
    <i name="volume">   3375.00000000 </i>
    <varray name="rec_basis" >
     <v>       0.06666667       0.00000000       0.00000000 </v>
     <v>       0.00000000       0.06666667       0.00000000 </v>
     <v>       0.00000000       0.00000000       0.06666667 </v>
    </varray>
   </crystal>
   <varray name="positions" >
    <v>       0.37307564       0.53782895       0.58841678 </v>
    <v>       0.37258290       0.44860381       0.58560608 </v>
    <v>       0.46081614       0.40413603       0.59771934 </v>
    <v>       0.46289532       0.58203025       0.59532480 </v>
    <v>       0.51951609       0.54322278       0.51740739 </v>
    <v>       0.53400565       0.44277091       0.53472769 </v>
    <v>       0.60275621       0.59109710       0.50635145 </v>
    <v>       0.53881301       0.38668659       0.45626123 </v>
    <v>       0.31478033       0.40808651       0.56821362 </v>
    <v>       0.48613513       0.41899929       0.66467533 </v>
    <v>       0.45813698       0.33195197       0.59326065 </v>
    <v>       0.31476951       0.57963411       0.57712084 </v>
    <v>       0.49881726       0.56543830       0.65678166 </v>
    <v>       0.45939909       0.65427025       0.59184751 </v>
    <v>       0.48362446       0.55294974       0.45443459 </v>
    <v>       0.59661222       0.43748067       0.57147927 </v>
    <v>       0.66751242       0.63316735       0.49893996 </v>
    <v>       0.53276904       0.33352316       0.39995253 </v>
   </varray>
  </structure>
  <varray name="primitive_index" >
   <v type="int" >        1 </v>
   <v type="int" >        2 </v>
   <v type="int" >        3 </v>
   <v type="int" >        4 </v>
   <v type="int" >        5 </v>
   <v type="int" >        6 </v>
   <v type="int" >        7 </v>
   <v type="int" >        8 </v>
   <v type="int" >        9 </v>
   <v type="int" >       10 </v>
   <v type="int" >       11 </v>
   <v type="int" >       12 </v>
   <v type="int" >       13 </v>
   <v type="int" >       14 </v>
   <v type="int" >       15 </v>
   <v type="int" >       16 </v>
   <v type="int" >       17 </v>
   <v type="int" >       18 </v>
  </varray>
 </primitive_cell>
 <kpoints>
  <generation param="Monkhorst-Pack">
   <v type="int" name="divisions">       1        1        1 </v>
   <v name="usershift">      0.00000000       0.00000000       0.00000000 </v>
   <v name="genvec1">      1.00000000       0.00000000       0.00000000 </v>
   <v name="genvec2">      0.00000000       1.00000000       0.00000000 </v>
   <v name="genvec3">      0.00000000       0.00000000       1.00000000 </v>
   <v name="shift">      0.00000000       0.00000000       0.00000000 </v>
  </generation>
  <varray name="kpointlist" >
   <v>       0.00000000       0.00000000       0.00000000 </v>
  </varray>
  <varray name="weights" >
   <v>       1.00000000 </v>
  </varray>
 </kpoints>
 <parameters>
  <separator name="general" >
   <i type="string" name="SYSTEM">unknown system</i>
   <i type="logical" name="LCOMPAT"> F  </i>
  </separator>
  <separator name="electronic" >
   <i type="string" name="PREC">normal</i>
   <i name="ENMAX">    400.00000000</i>
   <i name="ENAUG">    644.87300000</i>
   <i name="EDIFF">      0.00001000</i>
   <i type="int" name="IALGO">    68</i>
   <i type="int" name="IWAVPR">    11</i>
   <i type="int" name="NBANDS">    35</i>
   <i type="int" name="NBANDSLOW">    -1</i>
   <i type="int" name="NBANDSHIGH">    -1</i>
   <i name="NELECT">     50.00000000</i>
   <i type="int" name="TURBO">     0</i>
   <i type="int" name="IRESTART">     0</i>
   <i type="int" name="NREBOOT">     0</i>
   <i type="int" name="NMIN">     0</i>
   <i name="EREF">      0.00000000</i>
   <separator name="electronic smearing" >
    <i type="int" name="ISMEAR">     0</i>
    <i name="SIGMA">      0.05000000</i>
    <i name="KSPACING">      0.50000000</i>
    <i type="logical" name="KGAMMA"> T  </i>
    <i type="logical" name="KBLOWUP"> T  </i>
   </separator>
   <separator name="electronic projectors" >
    <i type="logical" name="LREAL"> F  </i>
    <v name="ROPT">      0.00000000      0.00000000      0.00000000</v>
    <i type="int" name="LMAXPAW">  -100</i>
    <i type="int" name="LMAXMIX">     2</i>
    <i type="logical" name="NLSPLINE"> F  </i>
   </separator>
   <separator name="electronic startup" >
    <i type="int" name="ISTART">     0</i>
    <i type="int" name="ICHARG">     2</i>
    <i type="int" name="INIWAV">     1</i>
   </separator>
   <separator name="electronic spin" >
    <i type="int" name="ISPIN">     1</i>
    <i type="logical" name="LNONCOLLINEAR"> F  </i>
    <v name="MAGMOM">      1.00000000      1.00000000      1.00000000      1.00000000      1.00000000      1.00000000      1.00000000      1.00000000      1.00000000      1.00000000      1.00000000      1.00000000      1.00000000      1.00000000      1.00000000      1.00000000      1.00000000      1.00000000</v>
    <i name="NUPDOWN">     -1.00000000</i>
    <i type="logical" name="LSORBIT"> F  </i>
    <v name="SAXIS">      0.00000000      0.00000000      1.00000000</v>
    <i type="logical" name="LSPIRAL"> F  </i>
    <v name="QSPIRAL">      0.00000000      0.00000000      0.00000000</v>
    <i type="logical" name="LZEROZ"> F  </i>
   </separator>
   <separator name="electronic exchange-correlation" >
    <i type="logical" name="LASPH"> F  </i>
    <i type="logical" name="LMETAGGA"> F  </i>
   </separator>
   <separator name="electronic convergence" >
    <i type="int" name="NELM">    60</i>
    <i type="int" name="NELMDL">    -5</i>
    <i type="int" name="NELMIN">     2</i>
    <i name="ENINI">    400.00000000</i>
    <separator name="electronic convergence detail" >
     <i type="logical" name="LDIAG"> T  </i>
     <i type="logical" name="LSUBROT"> F  </i>
     <i name="WEIMIN">      0.00100000</i>
     <i name="EBREAK">      0.00000007</i>
     <i name="DEPER">      0.30000000</i>
     <i type="int" name="NRMM">     4</i>
     <i name="TIME">      0.40000000</i>
    </separator>
   </separator>
   <separator name="electronic mixer" >
    <i name="AMIX">      0.40000000</i>
    <i name="BMIX">      1.00000000</i>
    <i name="AMIN">      0.10000000</i>
    <i name="AMIX_MAG">      1.60000000</i>
    <i name="BMIX_MAG">      1.00000000</i>
    <separator name="electronic mixer details" >
     <i type="int" name="IMIX">     4</i>
     <i type="logical" name="MIXFIRST"> F  </i>
     <i type="int" name="MAXMIX">   -45</i>
     <i name="WC">    100.00000000</i>
     <i type="int" name="INIMIX">     1</i>
     <i type="int" name="MIXPRE">     1</i>
     <i type="int" name="MREMOVE">     5</i>
    </separator>
   </separator>
   <separator name="electronic dipolcorrection" >
    <i type="logical" name="LDIPOL"> F  </i>
    <i type="logical" name="LMONO"> F  </i>
    <i type="int" name="IDIPOL">     0</i>
    <i name="EPSILON">      1.00000000</i>
    <v name="DIPOL">   -100.00000000   -100.00000000   -100.00000000</v>
    <i name="EFIELD">      0.00000000</i>
   </separator>
  </separator>
  <separator name="grids" >
   <i type="int" name="NGX">    80</i>
   <i type="int" name="NGY">    80</i>
   <i type="int" name="NGZ">    80</i>
   <i type="int" name="NGXF">   160</i>
   <i type="int" name="NGYF">   160</i>
   <i type="int" name="NGZF">   160</i>
   <i type="logical" name="ADDGRID"> F  </i>
  </separator>
  <separator name="ionic" >
   <i type="int" name="NSW">  5000</i>
   <i type="int" name="IBRION">     1</i>
   <i type="int" name="MDALGO">     0</i>
   <i type="int" name="ISIF">     2</i>
   <i name="PSTRESS">      0.00000000</i>
   <i name="EDIFFG">     -0.05000000</i>
   <i type="int" name="NFREE">     0</i>
   <i name="POTIM">      0.10000000</i>
   <i name="SMASS">     -3.00000000</i>
   <i name="SCALEE">      1.00000000</i>
  </separator>
  <separator name="ionic md" >
   <i name="TEBEG">      0.00010000</i>
   <i name="TEEND">      0.00010000</i>
   <i type="int" name="NBLOCK">     1</i>
   <i type="int" name="KBLOCK">  5000</i>
   <i type="int" name="NPACO">   256</i>
   <i name="APACO">     10.00000000</i>
  </separator>
  <separator name="symmetry" >
   <i type="int" name="ISYM">     2</i>
   <i name="SYMPREC">      0.00001000</i>
  </separator>
  <separator name="dos" >
   <i type="int" name="LORBIT">     0</i>
   <v name="RWIGS">     -1.00000000     -1.00000000     -1.00000000</v>
   <i type="int" name="NEDOS">   301</i>
   <i name="EMIN">     10.00000000</i>
   <i name="EMAX">    -10.00000000</i>
   <i name="EFERMI">      0.00000000</i>
  </separator>
  <separator name="writing" >
   <i type="int" name="NWRITE">     2</i>
   <i type="logical" name="LWAVE"> F  </i>
   <i type="logical" name="LDOWNSAMPLE"> F  </i>
   <i type="logical" name="LCHARG"> F  </i>
   <i type="logical" name="LPARD"> F  </i>
   <i type="logical" name="LVTOT"> F  </i>
   <i type="logical" name="LVHAR"> F  </i>
   <i type="logical" name="LELF"> F  </i>
   <i type="logical" name="LOPTICS"> F  </i>
   <v name="STM">      0.00000000      0.00000000      0.00000000      0.00000000      0.00000000      0.00000000      0.00000000</v>
  </separator>
  <separator name="performance" >
   <i type="int" name="NPAR">     1</i>
   <i type="int" name="NSIM">     4</i>
   <i type="int" name="NBLK">    -1</i>
   <i type="logical" name="LPLANE"> T  </i>
   <i type="logical" name="LSCALAPACK"> T  </i>
   <i type="logical" name="LSCAAWARE"> F  </i>
   <i type="logical" name="LSCALU"> F  </i>
   <i type="logical" name="LASYNC"> F  </i>
   <i type="logical" name="LORBITALREAL"> F  </i>
  </separator>
  <separator name="miscellaneous" >
   <i type="int" name="IDIOT">     3</i>
   <i type="int" name="PHON_NSTRUCT">    -1</i>
   <i type="logical" name="LMUSIC"> F  </i>
   <v name="POMASS">     12.01100000      1.00000000     14.00100000</v>
   <v name="DARWINR">      0.00000000      0.00000000      0.00000000</v>
   <v name="DARWINV">      1.00000000      1.00000000      1.00000000</v>
   <i type="logical" name="LCORR"> T  </i>
  </separator>
  <i type="logical" name="GGA_COMPAT"> T  </i>
  <i type="logical" name="LBERRY"> F  </i>
  <i type="int" name="ICORELEVEL">     0</i>
  <i type="logical" name="LDAU"> F  </i>
  <i type="int" name="I_CONSTRAINED_M">     0</i>
  <separator name="electronic exchange-correlation" >
   <i type="string" name="GGA">PE</i>
   <i type="int" name="VOSKOWN">     0</i>
   <i type="logical" name="LHFCALC"> F  </i>
   <i type="string" name="PRECFOCK"></i>
   <i type="logical" name="LSYMGRAD"> F  </i>
   <i type="logical" name="LHFONE"> F  </i>
   <i type="logical" name="LRHFCALC"> F  </i>
   <i type="logical" name="LTHOMAS"> F  </i>
   <i type="logical" name="LMODELHF"> F  </i>
   <i type="logical" name="LFOCKACE"> F  </i>
   <i name="ENCUT4O">     -1.00000000</i>
   <i type="int" name="EXXOEP">     0</i>
   <i type="int" name="FOURORBIT">     0</i>
   <i name="AEXX">      0.00000000</i>
   <i name="HFALPHA">      0.00000000</i>
   <i name="MCALPHA">      0.00000000</i>
   <i name="ALDAX">      1.00000000</i>
   <i name="AGGAX">      1.00000000</i>
   <i name="ALDAC">      1.00000000</i>
   <i name="AGGAC">      1.00000000</i>
   <i type="int" name="NKREDX">     1</i>
   <i type="int" name="NKREDY">     1</i>
   <i type="int" name="NKREDZ">     1</i>
   <i type="logical" name="SHIFTRED"> F  </i>
   <i type="logical" name="ODDONLY"> F  </i>
   <i type="logical" name="EVENONLY"> F  </i>
   <i type="int" name="LMAXFOCK">     0</i>
   <i type="int" name="NMAXFOCKAE">     0</i>
   <i type="logical" name="LFOCKAEDFT"> F  </i>
   <i name="HFSCREEN">      0.00000000</i>
   <i name="HFSCREENC">      0.00000000</i>
   <i type="int" name="NBANDSGWLOW">     0</i>
  </separator>
  <separator name="vdW DFT" >
   <i type="logical" name="LUSE_VDW"> F  </i>
   <i name="Zab_VDW">     -0.84910000</i>
   <i name="PARAM1">      0.12340000</i>
   <i name="PARAM2">      1.00000000</i>
   <i name="PARAM3">      0.00000000</i>
  </separator>
  <separator name="model GW" >
   <i type="int" name="MODEL_GW">     0</i>
   <i name="MODEL_EPS0">    112.50000000</i>
   <i name="MODEL_ALPHA">      1.00000000</i>
  </separator>
  <separator name="linear response parameters" >
   <i type="logical" name="LEPSILON"> F  </i>
   <i type="logical" name="LRPA"> F  </i>
   <i type="logical" name="LNABLA"> F  </i>
   <i type="logical" name="LVEL"> F  </i>
   <i name="CSHIFT">      0.10000000</i>
   <i name="OMEGAMAX">     -1.00000000</i>
   <i name="DEG_THRESHOLD">      0.00200000</i>
   <i name="RTIME">     -0.10000000</i>
   <i name="WPLASMAI">      0.00000000</i>
   <v name="DFIELD">      0.00000000      0.00000000      0.00000000</v>
   <v name="WPLASMA">      0.00000000      0.00000000      0.00000000      0.00000000      0.00000000      0.00000000      0.00000000      0.00000000      0.00000000</v>
  </separator>
  <separator name="orbital magnetization" >
   <i type="logical" name="NUCIND"> F  </i>
   <v name="MAGPOS">      0.00000000      0.00000000      0.00000000</v>
   <i type="logical" name="LNICSALL"> T  </i>
   <i type="logical" name="ORBITALMAG"> F  </i>
   <i type="logical" name="LMAGBLOCH"> F  </i>
   <i type="logical" name="LCHIMAG"> F  </i>
   <i type="logical" name="LGAUGE"> T  </i>
   <i type="int" name="MAGATOM">     0</i>
   <v name="MAGDIPOL">      0.00000000      0.00000000      0.00000000</v>
   <v name="AVECCONST">      0.00000000      0.00000000      0.00000000</v>
  </separator>
  <separator name="response functions" >
   <i type="logical" name="LFINITE_TEMPERATURE"> F  </i>
   <i type="logical" name="LADDER"> F  </i>
   <i type="logical" name="LRPAFORCE"> F  </i>
   <i type="logical" name="LFXC"> F  </i>
   <i type="logical" name="LHARTREE"> T  </i>
   <i type="int" name="IBSE">     0</i>
   <v type="int" name="KPOINT">    -1     0     0     0</v>
   <i type="logical" name="LTCTC"> F  </i>
   <i type="logical" name="LTCTE"> F  </i>
   <i type="logical" name="LTETE"> F  </i>
   <i type="logical" name="LTRIPLET"> F  </i>
   <i type="logical" name="LFXCEPS"> F  </i>
   <i type="logical" name="LFXHEG"> F  </i>
   <i type="int" name="NATURALO">     2</i>
   <i type="logical" name="LHOLEGF"> F  </i>
   <i type="logical" name="L2ORDER"> F  </i>
   <i type="logical" name="LDMP1"> F  </i>
   <i type="logical" name="LMP2LT"> F  </i>
   <i type="logical" name="LSMP2LT"> F  </i>
   <i type="logical" name="LGWLF"> F  </i>
   <i name="ENCUTGW">     -2.00000000</i>
   <i name="ENCUTGWSOFT">     -2.00000000</i>
   <i name="ENCUTLF">     -1.00000000</i>
   <i type="logical" name="LESF_SPLINES"> F  </i>
   <i type="int" name="LMAXMP2">    -1</i>
   <i name="SCISSOR">      0.00000000</i>
   <i type="int" name="NOMEGA">     0</i>
   <i type="int" name="NOMEGAR">     0</i>
   <i type="int" name="NBANDSGW">    -1</i>
   <i type="int" name="NBANDSO">    -1</i>
   <i type="int" name="NBANDSV">    -1</i>
   <i type="int" name="NELMGW">     1</i>
   <i type="int" name="NELMHF">     1</i>
   <i type="int" name="DIM">     3</i>
   <i type="int" name="IESPILON">     4</i>
   <i type="int" name="ANTIRES">     0</i>
   <i name="OMEGAMAX">    -30.00000000</i>
   <i name="OMEGAMIN">    -30.00000000</i>
   <i name="OMEGATL">   -200.00000000</i>
   <i type="int" name="OMEGAGRID">     0</i>
   <i name="CSHIFT">     -0.10000000</i>
   <i type="logical" name="LSELFENERGY"> F  </i>
   <i type="logical" name="LSPECTRAL"> F  </i>
   <i type="logical" name="LSPECTRALGW"> F  </i>
   <i type="logical" name="LSINGLES"> F  </i>
   <i type="logical" name="LFERMIGW"> F  </i>
   <i type="logical" name="ODDONLYGW"> F  </i>
   <i type="logical" name="EVENONLYGW"> F  </i>
   <i type="int" name="NKREDLFX">     1</i>
   <i type="int" name="NKREDLFY">     1</i>
   <i type="int" name="NKREDLFZ">     1</i>
   <i type="int" name="MAXMEM">  2800</i>
   <i type="int" name="TELESCOPE">     0</i>
   <i type="int" name="NTAUPAR">    -1</i>
   <i type="int" name="NOMEGAPAR">    -1</i>
   <i name="DAMP_NEWTON">      0.80000001</i>
   <i name="LAMBDA">      1.00000000</i>
  </separator>
  <separator name="External order field" >
   <i name="OFIELD_KAPPA">      0.00000000</i>
   <v name="OFIELD_K">      0.00000000      0.00000000      0.00000000</v>
   <i name="OFIELD_Q6_NEAR">      0.00000000</i>
   <i name="OFIELD_Q6_FAR">      0.00000000</i>
   <i name="OFIELD_A">      0.00000000</i>
  </separator>
  <separator name="optional k-points parameters" >
   <i type="int" name="KPOINTS_OPT_MODE">     1</i>
   <i type="logical" name="LKPOINTS_OPT"> F  </i>
  </separator>
 </parameters>
 <atominfo>
  <atoms>      18 </atoms>
  <types>       3 </types>
  <array name="atoms" >
   <dimension dim="1">ion</dimension>
   <field type="string">element</field>
   <field type="int">atomtype</field>
   <set>
    <rc><c>C </c><c>   1</c></rc>
    <rc><c>C </c><c>   1</c></rc>
    <rc><c>C </c><c>   1</c></rc>
    <rc><c>C </c><c>   1</c></rc>
    <rc><c>C </c><c>   1</c></rc>
    <rc><c>C </c><c>   1</c></rc>
    <rc><c>C </c><c>   1</c></rc>
    <rc><c>C </c><c>   1</c></rc>
    <rc><c>H </c><c>   2</c></rc>
    <rc><c>H </c><c>   2</c></rc>
    <rc><c>H </c><c>   2</c></rc>
    <rc><c>H </c><c>   2</c></rc>
    <rc><c>H </c><c>   2</c></rc>
    <rc><c>H </c><c>   2</c></rc>
    <rc><c>H </c><c>   2</c></rc>
    <rc><c>H </c><c>   2</c></rc>
    <rc><c>N </c><c>   3</c></rc>
    <rc><c>N </c><c>   3</c></rc>
   </set>
  </array>
  <array name="atomtypes" >
   <dimension dim="1">type</dimension>
   <field type="int">atomspertype</field>
   <field type="string">element</field>
   <field>mass</field>
   <field>valence</field>
   <field type="string">pseudopotential</field>
   <set>
    <rc><c>   8</c><c>C </c><c>     12.01100000</c><c>      4.00000000</c><c>  PAW_PBE C 08Apr2002                   </c></rc>
    <rc><c>   8</c><c>H </c><c>      1.00000000</c><c>      1.00000000</c><c>  PAW_PBE H 15Jun2001                   </c></rc>
    <rc><c>   2</c><c>N </c><c>     14.00100000</c><c>      5.00000000</c><c>  PAW_PBE N 08Apr2002                   </c></rc>
   </set>
  </array>
 </atominfo>
 <structure name="initialpos" >
  <crystal>
   <varray name="basis" >
    <v>      15.00000000       0.00000000       0.00000000 </v>
    <v>       0.00000000      15.00000000       0.00000000 </v>
    <v>       0.00000000       0.00000000      15.00000000 </v>
   </varray>
   <i name="volume">   3375.00000000 </i>
   <varray name="rec_basis" >
    <v>       0.06666667       0.00000000       0.00000000 </v>
    <v>       0.00000000       0.06666667       0.00000000 </v>
    <v>       0.00000000       0.00000000       0.06666667 </v>
   </varray>
  </crystal>
  <varray name="positions" >
   <v>       0.37307564       0.53782895       0.58841678 </v>
   <v>       0.37258290       0.44860381       0.58560608 </v>
   <v>       0.46081614       0.40413603       0.59771934 </v>
   <v>       0.46289532       0.58203025       0.59532480 </v>
   <v>       0.51951609       0.54322278       0.51740739 </v>
   <v>       0.53400565       0.44277091       0.53472769 </v>
   <v>       0.60275621       0.59109710       0.50635145 </v>
   <v>       0.53881301       0.38668659       0.45626123 </v>
   <v>       0.31478033       0.40808651       0.56821362 </v>
   <v>       0.48613513       0.41899929       0.66467533 </v>
   <v>       0.45813698       0.33195197       0.59326065 </v>
   <v>       0.31476951       0.57963411       0.57712084 </v>
   <v>       0.49881726       0.56543830       0.65678166 </v>
   <v>       0.45939909       0.65427025       0.59184751 </v>
   <v>       0.48362446       0.55294974       0.45443459 </v>
   <v>       0.59661222       0.43748067       0.57147927 </v>
   <v>       0.66751242       0.63316735       0.49893996 </v>
   <v>       0.53276904       0.33352316       0.39995253 </v>
  </varray>
 </structure>
 <calculation>
  <scstep>
   <time name="dav">    3.07    3.10</time>
   <time name="total">    4.59    4.63</time>
   <energy>
    <i name="alphaZ">      3.36120243 </i>
    <i name="ewald">   3158.57139374 </i>
    <i name="hartreedc">  -4402.36229632 </i>
    <i name="XCdc">    160.95191092 </i>
    <i name="pawpsdc">   1295.11405375 </i>
    <i name="pawaedc">  -1302.12229068 </i>
    <i name="eentropy">     -0.00009396 </i>
    <i name="bandstr">   -264.65647995 </i>
    <i name="atom">   1805.79685712 </i>
    <i name="e_fr_energy">    454.65425706 </i>
    <i name="e_wo_entrp">    454.65435101 </i>
    <i name="e_0_energy">    454.65430404 </i>
   </energy>
  </scstep>
  <scstep>
   <time name="dav">    4.98    4.99</time>
   <time name="total">    4.98    5.00</time>
   <energy>
    <i name="e_fr_energy">     84.30162642 </i>
    <i name="e_wo_entrp">     84.30162642 </i>
    <i name="e_0_energy">     84.30162642 </i>
   </energy>
  </scstep>
  <scstep>
   <time name="dav">    3.32    3.47</time>
   <time name="total">    3.32    3.48</time>
   <energy>
    <i name="e_fr_energy">   -102.77952315 </i>
    <i name="e_wo_entrp">   -102.77952315 </i>
    <i name="e_0_energy">   -102.77952315 </i>
   </energy>
  </scstep>
  <scstep>
   <time name="dav">    3.10    3.20</time>
   <time name="total">    3.10    3.21</time>
   <energy>
    <i name="e_fr_energy">   -126.52246529 </i>
    <i name="e_wo_entrp">   -126.52246529 </i>
    <i name="e_0_energy">   -126.52246529 </i>
   </energy>
  </scstep>
  <scstep>
   <time name="dav">    2.59    2.59</time>
   <time name="total">    2.87    2.87</time>
   <energy>
    <i name="e_fr_energy">   -126.98404545 </i>
    <i name="e_wo_entrp">   -126.98404545 </i>
    <i name="e_0_energy">   -126.98404545 </i>
   </energy>
  </scstep>
  <scstep>
   <time name="diag">    0.32    0.32</time>
   <time name="diis">    2.09    2.09</time>
   <time name="orth">    0.01    0.01</time>
   <time name="total">    4.04    4.04</time>
   <energy>
    <i name="e_fr_energy">   -118.12232378 </i>
    <i name="e_wo_entrp">   -118.12232378 </i>
    <i name="e_0_energy">   -118.12232378 </i>
   </energy>
  </scstep>
  <scstep>
   <time name="diag">    0.37    0.37</time>
   <time name="diis">    2.23    2.23</time>
   <time name="orth">    0.01    0.01</time>
   <time name="total">    4.33    4.33</time>
   <energy>
    <i name="e_fr_energy">   -115.96552271 </i>
    <i name="e_wo_entrp">   -115.96552271 </i>
    <i name="e_0_energy">   -115.96552271 </i>
   </energy>
  </scstep>
  <scstep>
   <time name="diag">    0.35    0.35</time>
   <time name="diis">    2.28    2.28</time>
   <time name="orth">    0.01    0.01</time>
   <time name="total">    4.42    4.42</time>
   <energy>
    <i name="e_fr_energy">   -115.78005974 </i>
    <i name="e_wo_entrp">   -115.78005974 </i>
    <i name="e_0_energy">   -115.78005974 </i>
   </energy>
  </scstep>
  <scstep>
   <time name="diag">    0.33    0.33</time>
   <time name="diis">    2.35    2.35</time>
   <time name="orth">    0.01    0.01</time>
   <time name="total">    4.41    4.41</time>
   <energy>
    <i name="e_fr_energy">   -115.70082852 </i>
    <i name="e_wo_entrp">   -115.70082852 </i>
    <i name="e_0_energy">   -115.70082852 </i>
   </energy>
  </scstep>
  <scstep>
   <time name="diag">    0.33    0.33</time>
   <time name="diis">    2.54    2.54</time>
   <time name="orth">    0.01    0.01</time>
   <time name="total">    4.72    4.72</time>
   <energy>
    <i name="e_fr_energy">   -115.70986775 </i>
    <i name="e_wo_entrp">   -115.70986775 </i>
    <i name="e_0_energy">   -115.70986775 </i>
   </energy>
  </scstep>
  <scstep>
   <time name="diag">    0.34    0.34</time>
   <time name="diis">    2.14    2.14</time>
   <time name="orth">    0.01    0.01</time>
   <time name="total">    4.22    4.22</time>
   <energy>
    <i name="e_fr_energy">   -115.72337132 </i>
    <i name="e_wo_entrp">   -115.72337132 </i>
    <i name="e_0_energy">   -115.72337132 </i>
   </energy>
  </scstep>
  <scstep>
   <time name="diag">    0.32    0.32</time>
   <time name="diis">    2.16    2.16</time>
   <time name="orth">    0.01    0.01</time>
   <time name="total">    4.21    4.21</time>
   <energy>
    <i name="e_fr_energy">   -115.72345280 </i>
    <i name="e_wo_entrp">   -115.72345280 </i>
    <i name="e_0_energy">   -115.72345280 </i>
   </energy>
  </scstep>
  <scstep>
   <time name="diag">    0.33    0.33</time>
   <time name="diis">    2.23    2.23</time>
   <time name="orth">    0.01    0.01</time>
   <time name="total">    4.29    4.29</time>
   <energy>
    <i name="e_fr_energy">   -115.73842566 </i>
    <i name="e_wo_entrp">   -115.73842566 </i>
    <i name="e_0_energy">   -115.73842566 </i>
   </energy>
  </scstep>
  <scstep>
   <time name="diag">    0.31    0.31</time>
   <time name="diis">    2.35    2.35</time>
   <time name="orth">    0.01    0.01</time>
   <time name="total">    4.51    4.51</time>
   <energy>
    <i name="e_fr_energy">   -115.73879162 </i>
    <i name="e_wo_entrp">   -115.73879162 </i>
    <i name="e_0_energy">   -115.73879162 </i>
   </energy>
  </scstep>
  <scstep>
   <time name="diag">    0.35    0.35</time>
   <time name="diis">    2.29    2.29</time>
   <time name="orth">    0.01    0.01</time>
   <time name="total">    4.47    4.47</time>
   <energy>
    <i name="e_fr_energy">   -115.74931908 </i>
    <i name="e_wo_entrp">   -115.74931908 </i>
    <i name="e_0_energy">   -115.74931908 </i>
   </energy>
  </scstep>
  <scstep>
   <time name="diag">    0.32    0.32</time>
   <time name="diis">    2.55    2.55</time>
   <time name="orth">    0.01    0.01</time>
   <time name="total">    4.73    4.73</time>
   <energy>
    <i name="e_fr_energy">   -115.75031781 </i>
    <i name="e_wo_entrp">   -115.75031781 </i>
    <i name="e_0_energy">   -115.75031781 </i>
   </energy>
  </scstep>
  <scstep>
   <time name="diag">    0.36    0.36</time>
   <time name="diis">    2.24    2.24</time>
   <time name="orth">    0.01    0.01</time>
   <time name="total">    4.50    4.50</time>
   <energy>
    <i name="e_fr_energy">   -115.75101382 </i>
    <i name="e_wo_entrp">   -115.75101382 </i>
    <i name="e_0_energy">   -115.75101382 </i>
   </energy>
  </scstep>
  <scstep>
   <time name="diag">    0.32    0.32</time>
   <time name="diis">    2.67    2.67</time>
   <time name="orth">    0.03    0.03</time>
   <time name="total">    5.26    5.27</time>
   <energy>
    <i name="e_fr_energy">   -115.75295235 </i>
    <i name="e_wo_entrp">   -115.75295235 </i>
    <i name="e_0_energy">   -115.75295235 </i>
   </energy>
  </scstep>
  <scstep>
   <time name="diag">    1.01    1.01</time>
   <time name="diis">    4.30    4.30</time>
   <time name="orth">    0.03    0.04</time>
   <time name="total">    9.07    9.08</time>
   <energy>
    <i name="e_fr_energy">   -115.75350114 </i>
    <i name="e_wo_entrp">   -115.75350114 </i>
    <i name="e_0_energy">   -115.75350114 </i>
   </energy>
  </scstep>
  <scstep>
   <time name="diag">    0.38    0.38</time>
   <time name="diis">    2.01    2.01</time>
   <time name="orth">    0.01    0.01</time>
   <time name="total">    4.92    4.92</time>
   <energy>
    <i name="e_fr_energy">   -115.75384759 </i>
    <i name="e_wo_entrp">   -115.75384759 </i>
    <i name="e_0_energy">   -115.75384759 </i>
   </energy>
  </scstep>
  <scstep>
   <time name="diag">    0.36    0.36</time>
   <time name="diis">    1.58    1.58</time>
   <time name="orth">    0.01    0.01</time>
   <time name="total">    3.76    3.76</time>
   <energy>
    <i name="e_fr_energy">   -115.75387751 </i>
    <i name="e_wo_entrp">   -115.75387751 </i>
    <i name="e_0_energy">   -115.75387751 </i>
   </energy>
  </scstep>
  <scstep>
   <time name="diag">    0.36    0.36</time>
   <time name="diis">    1.65    1.65</time>
   <time name="orth">    0.01    0.01</time>
   <time name="total">    3.92    3.92</time>
   <energy>
    <i name="e_fr_energy">   -115.75397212 </i>
    <i name="e_wo_entrp">   -115.75397212 </i>
    <i name="e_0_energy">   -115.75397212 </i>
   </energy>
  </scstep>
  <scstep>
   <time name="diag">    0.29    0.29</time>
   <time name="diis">    1.10    1.10</time>
   <time name="orth">    0.01    0.01</time>
   <time name="total">    3.09    3.09</time>
   <energy>
    <i name="e_fr_energy">   -115.75399455 </i>
    <i name="e_wo_entrp">   -115.75399455 </i>
    <i name="e_0_energy">   -115.75399455 </i>
   </energy>
  </scstep>
  <scstep>
   <time name="diag">    0.23    0.23</time>
   <time name="diis">    0.88    0.88</time>
   <time name="orth">    0.01    0.01</time>
   <time name="total">    2.37    2.37</time>
   <energy>
    <i name="e_fr_energy">   -115.75401090 </i>
    <i name="e_wo_entrp">   -115.75401090 </i>
    <i name="e_0_energy">   -115.75401090 </i>
   </energy>
  </scstep>
  <scstep>
   <time name="diag">    0.24    0.24</time>
   <time name="diis">    0.78    0.78</time>
   <time name="orth">    0.01    0.01</time>
   <time name="total">    2.03    2.03</time>
   <energy>
    <i name="alphaZ">      3.36120243 </i>
    <i name="ewald">   3158.57139374 </i>
    <i name="hartreedc">  -4606.17604396 </i>
    <i name="XCdc">    171.06071383 </i>
    <i name="pawpsdc">   4398.31633619 </i>
    <i name="pawaedc">  -4406.65377849 </i>
    <i name="eentropy">     -0.00000000 </i>
    <i name="bandstr">   -640.03069599 </i>
    <i name="atom">   1805.79685712 </i>
    <i name="e_fr_energy">   -115.75401513 </i>
    <i name="e_wo_entrp">   -115.75401513 </i>
    <i name="e_0_energy">   -115.75401513 </i>
   </energy>
  </scstep>
  <structure>
   <crystal>
    <varray name="basis" >
     <v>      15.00000000       0.00000000       0.00000000 </v>
     <v>       0.00000000      15.00000000       0.00000000 </v>
     <v>       0.00000000       0.00000000      15.00000000 </v>
    </varray>
    <i name="volume">   3375.00000000 </i>
    <varray name="rec_basis" >
     <v>       0.06666667       0.00000000       0.00000000 </v>
     <v>       0.00000000       0.06666667       0.00000000 </v>
     <v>       0.00000000       0.00000000       0.06666667 </v>
    </varray>
   </crystal>
   <varray name="positions" >
    <v>       0.37307564       0.53782895       0.58841678 </v>
    <v>       0.37258290       0.44860381       0.58560608 </v>
    <v>       0.46081614       0.40413603       0.59771934 </v>
    <v>       0.46289532       0.58203025       0.59532480 </v>
    <v>       0.51951609       0.54322278       0.51740739 </v>
    <v>       0.53400565       0.44277091       0.53472769 </v>
    <v>       0.60275621       0.59109710       0.50635145 </v>
    <v>       0.53881301       0.38668659       0.45626123 </v>
    <v>       0.31478033       0.40808651       0.56821362 </v>
    <v>       0.48613513       0.41899929       0.66467533 </v>
    <v>       0.45813698       0.33195197       0.59326065 </v>
    <v>       0.31476951       0.57963411       0.57712084 </v>
    <v>       0.49881726       0.56543830       0.65678166 </v>
    <v>       0.45939909       0.65427025       0.59184751 </v>
    <v>       0.48362446       0.55294974       0.45443459 </v>
    <v>       0.59661222       0.43748067       0.57147927 </v>
    <v>       0.66751242       0.63316735       0.49893996 </v>
    <v>       0.53276904       0.33352316       0.39995253 </v>
   </varray>
  </structure>
  <varray name="forces" >
   <v>       0.11076562       0.18858273       0.02969636 </v>
   <v>       0.01579069      -0.10018415      -0.25179077 </v>
   <v>      -0.02183005       0.15771105       0.34203194 </v>
   <v>      -0.19615743      -0.18993300      -0.28901513 </v>
   <v>      -0.05977903       0.23783484      -0.21330969 </v>
   <v>       0.11386480      -0.17015569       0.20104550 </v>
   <v>      -0.02980456      -0.04509405       0.12354820 </v>
   <v>      -0.16329954       0.03112576      -0.02778788 </v>
   <v>      -0.16122917       0.11705793       0.21074781 </v>
   <v>      -0.07413592      -0.02632469       0.32280218 </v>
   <v>      -0.02403957      -0.34106701      -0.18975113 </v>
   <v>      -0.14319506      -0.07858201       0.03171115 </v>
   <v>      -0.01239011      -0.00477281       0.32372633 </v>
   <v>      -0.03581093       0.34610374      -0.12347353 </v>
   <v>      -0.29697322      -0.04754646      -0.06896380 </v>
   <v>       0.40275346      -0.19022832       0.01237146 </v>
   <v>       0.41808293       0.19844150      -0.04725814 </v>
   <v>       0.15738709      -0.08296937      -0.38633085 </v>
  </varray>
  <varray name="stress" >
   <v>      -0.03635475      -0.05497489      -0.08784399 </v>
   <v>      -0.05497489      -0.18944112      -0.02487460 </v>
   <v>      -0.08784400      -0.02487460      -0.32221581 </v>
  </varray>
  <energy>
   <i name="e_fr_energy">   -115.99977437 </i>
   <i name="e_wo_entrp">   -115.99977437 </i>
   <i name="e_0_energy">   -115.99977437 </i>
  </energy>
  <time name="totalsc">  140.29  140.74</time>
 </calculation>
 <calculation>
  <scstep>
   <time name="dav">    3.54    3.65</time>
   <time name="total">    5.81    5.97</time>
   <energy>
    <i name="alphaZ">      3.36120243 </i>
    <i name="ewald">   3154.86850255 </i>
    <i name="hartreedc">  -4603.54440364 </i>
    <i name="XCdc">    171.00270221 </i>
    <i name="pawpsdc">   4398.33315763 </i>
    <i name="pawaedc">  -4406.67058904 </i>
    <i name="eentropy">     -0.00000000 </i>
    <i name="bandstr">   -638.91453477 </i>
    <i name="atom">   1805.79685712 </i>
    <i name="e_fr_energy">   -115.76710551 </i>
    <i name="e_wo_entrp">   -115.76710551 </i>
    <i name="e_0_energy">   -115.76710551 </i>
   </energy>
  </scstep>
  <scstep>
   <time name="diag">    0.53    0.53</time>
   <time name="diis">    3.15    3.23</time>
   <time name="orth">    0.02    0.02</time>
   <time name="total">    5.93    6.02</time>
   <energy>
    <i name="e_fr_energy">   -115.76761765 </i>
    <i name="e_wo_entrp">   -115.76761765 </i>
    <i name="e_0_energy">   -115.76761765 </i>
   </energy>
  </scstep>
  <scstep>
   <time name="diag">    0.51    0.51</time>
   <time name="diis">    3.30    3.33</time>
   <time name="orth">    0.02    0.04</time>
   <time name="total">    5.84    5.94</time>
   <energy>
    <i name="e_fr_energy">   -115.76765674 </i>
    <i name="e_wo_entrp">   -115.76765674 </i>
    <i name="e_0_energy">   -115.76765674 </i>
   </energy>
  </scstep>
  <scstep>
   <time name="diag">    0.52    0.52</time>
   <time name="diis">    3.86    4.24</time>
   <time name="orth">    0.03    0.04</time>
   <time name="total">    6.95    7.42</time>
   <energy>
    <i name="e_fr_energy">   -115.76770827 </i>
    <i name="e_wo_entrp">   -115.76770827 </i>
    <i name="e_0_energy">   -115.76770827 </i>
   </energy>
  </scstep>
  <scstep>
   <time name="diag">    0.83    0.83</time>
   <time name="diis">    4.02    4.02</time>
   <time name="orth">    0.01    0.01</time>
   <time name="total">    7.99    7.99</time>
   <energy>
    <i name="e_fr_energy">   -115.76772859 </i>
    <i name="e_wo_entrp">   -115.76772859 </i>
    <i name="e_0_energy">   -115.76772859 </i>
   </energy>
  </scstep>
  <scstep>
   <time name="diag">    0.27    0.27</time>
   <time name="diis">    0.88    0.88</time>
   <time name="orth">    0.00    0.00</time>
   <time name="total">    2.34    2.34</time>
   <energy>
    <i name="alphaZ">      3.36120243 </i>
    <i name="ewald">   3154.86850255 </i>
    <i name="hartreedc">  -4602.75569112 </i>
    <i name="XCdc">    170.96171070 </i>
    <i name="pawpsdc">   4378.90544192 </i>
    <i name="pawaedc">  -4387.22923972 </i>
    <i name="eentropy">     -0.00000000 </i>
    <i name="bandstr">   -639.67651933 </i>
    <i name="atom">   1805.79685712 </i>
    <i name="e_fr_energy">   -115.76773547 </i>
    <i name="e_wo_entrp">   -115.76773547 </i>
    <i name="e_0_energy">   -115.76773547 </i>
   </energy>
  </scstep>
  <structure>
   <crystal>
    <varray name="basis" >
     <v>      15.00000000       0.00000000       0.00000000 </v>
     <v>       0.00000000      15.00000000       0.00000000 </v>
     <v>       0.00000000       0.00000000      15.00000000 </v>
    </varray>
    <i name="volume">   3375.00000000 </i>
    <varray name="rec_basis" >
     <v>       0.06666667       0.00000000       0.00000000 </v>
     <v>       0.00000000       0.06666667       0.00000000 </v>
     <v>       0.00000000       0.00000000       0.06666667 </v>
    </varray>
   </crystal>
   <varray name="positions" >
    <v>       0.37315946       0.53790310       0.58844201 </v>
    <v>       0.37264867       0.44849177       0.58548799 </v>
    <v>       0.46088006       0.40425100       0.59797798 </v>
    <v>       0.46275866       0.58189805       0.59512656 </v>
    <v>       0.51947294       0.54337459       0.51725073 </v>
    <v>       0.53404488       0.44264511       0.53477785 </v>
    <v>       0.60274527       0.59104537       0.50642527 </v>
    <v>       0.53841539       0.38672725       0.45617975 </v>
    <v>       0.31475912       0.40807461       0.56840748 </v>
    <v>       0.48620350       0.41907422       0.66487701 </v>
    <v>       0.45824450       0.33174564       0.59324089 </v>
    <v>       0.31467846       0.57950384       0.57710500 </v>
    <v>       0.49881171       0.56544554       0.65697514 </v>
    <v>       0.45934609       0.65448110       0.59174548 </v>
    <v>       0.48343059       0.55296127       0.45437864 </v>
    <v>       0.59689337       0.43727680       0.57124775 </v>
    <v>       0.66780032       0.63324874       0.49887405 </v>
    <v>       0.53236641       0.33352847       0.39968416 </v>
   </varray>
  </structure>
  <varray name="forces" >
   <v>      -0.00123226      -0.00644502      -0.02131011 </v>
   <v>       0.02894946       0.08351903      -0.18504458 </v>
   <v>      -0.01301844      -0.05619068       0.24161722 </v>
   <v>      -0.05245318       0.03765733      -0.11548445 </v>
   <v>      -0.05812579       0.09480719      -0.13978973 </v>
   <v>       0.10226518      -0.08174384       0.17557893 </v>
   <v>       0.46406313       0.29935068       0.03719868 </v>
   <v>      -0.16552738      -0.17043376      -0.21499622 </v>
   <v>      -0.17125704       0.09502173       0.19581877 </v>
   <v>      -0.07096150      -0.01820154       0.34228215 </v>
   <v>      -0.01717327      -0.17970827      -0.15358141 </v>
   <v>      -0.12376195      -0.07466387       0.03675734 </v>
   <v>      -0.08121791       0.02363804       0.17715265 </v>
   <v>      -0.03398547       0.18670271      -0.11478440 </v>
   <v>      -0.28037223      -0.04527049      -0.08765338 </v>
   <v>       0.36483062      -0.17864027      -0.00273920 </v>
   <v>      -0.06040867      -0.11720758       0.01624500 </v>
   <v>       0.16938669       0.10780861      -0.18726724 </v>
  </varray>
  <varray name="stress" >
   <v>      -0.23691189      -0.14992480      -0.11670281 </v>
   <v>      -0.14992480      -0.59494065      -0.03927734 </v>
   <v>      -0.11670280      -0.03927734      -0.46619761 </v>
  </varray>
  <energy>
   <i name="e_fr_energy">   -116.01340330 </i>
   <i name="e_wo_entrp">   -116.01340330 </i>
   <i name="e_0_energy">   -116.01340330 </i>
  </energy>
  <time name="totalsc">   55.40   56.24</time>
 </calculation>
 <calculation>
  <scstep>
   <time name="dav">    2.20    2.20</time>
   <time name="total">    3.94    3.95</time>
   <energy>
    <i name="alphaZ">      3.36120243 </i>
    <i name="ewald">   3153.79906953 </i>
    <i name="hartreedc">  -4601.44581337 </i>
    <i name="XCdc">    170.95608551 </i>
    <i name="pawpsdc">   4379.42030494 </i>
    <i name="pawaedc">  -4387.74396249 </i>
    <i name="eentropy">     -0.00000000 </i>
    <i name="bandstr">   -639.91963666 </i>
    <i name="atom">   1805.79685712 </i>
    <i name="e_fr_energy">   -115.77589299 </i>
    <i name="e_wo_entrp">   -115.77589299 </i>
    <i name="e_0_energy">   -115.77589299 </i>
   </energy>
  </scstep>
  <scstep>
   <time name="diag">    0.43    0.43</time>
   <time name="diis">    2.27    2.27</time>
   <time name="orth">    0.01    0.01</time>
   <time name="total">    4.54    4.54</time>
   <energy>
    <i name="e_fr_energy">   -115.77596681 </i>
    <i name="e_wo_entrp">   -115.77596681 </i>
    <i name="e_0_energy">   -115.77596681 </i>
   </energy>
  </scstep>
  <scstep>
   <time name="diag">    0.35    0.35</time>
   <time name="diis">    2.31    2.31</time>
   <time name="orth">    0.01    0.01</time>
   <time name="total">    4.45    4.45</time>
   <energy>
    <i name="e_fr_energy">   -115.77593749 </i>
    <i name="e_wo_entrp">   -115.77593749 </i>
    <i name="e_0_energy">   -115.77593749 </i>
   </energy>
  </scstep>
  <scstep>
   <time name="diag">    0.35    0.35</time>
   <time name="diis">    2.29    2.29</time>
   <time name="orth">    0.01    0.01</time>
   <time name="total">    4.35    4.35</time>
   <energy>
    <i name="e_fr_energy">   -115.77597057 </i>
    <i name="e_wo_entrp">   -115.77597057 </i>
    <i name="e_0_energy">   -115.77597057 </i>
   </energy>
  </scstep>
  <scstep>
   <time name="diag">    0.35    0.35</time>
   <time name="diis">    2.34    2.34</time>
   <time name="orth">    0.01    0.01</time>
   <time name="total">    4.13    4.13</time>
   <energy>
    <i name="alphaZ">      3.36120243 </i>
    <i name="ewald">   3153.79906953 </i>
    <i name="hartreedc">  -4601.75670624 </i>
    <i name="XCdc">    170.97673101 </i>
    <i name="pawpsdc">   4386.38099562 </i>
    <i name="pawaedc">  -4394.71278252 </i>
    <i name="eentropy">     -0.00000000 </i>
    <i name="bandstr">   -639.62134428 </i>
    <i name="atom">   1805.79685712 </i>
    <i name="e_fr_energy">   -115.77597734 </i>
    <i name="e_wo_entrp">   -115.77597734 </i>
    <i name="e_0_energy">   -115.77597734 </i>
   </energy>
  </scstep>
  <structure>
   <crystal>
    <varray name="basis" >
     <v>      15.00000000       0.00000000       0.00000000 </v>
     <v>       0.00000000      15.00000000       0.00000000 </v>
     <v>       0.00000000       0.00000000      15.00000000 </v>
    </varray>
    <i name="volume">   3375.00000000 </i>
    <varray name="rec_basis" >
     <v>       0.06666667       0.00000000       0.00000000 </v>
     <v>       0.00000000       0.06666667       0.00000000 </v>
     <v>       0.00000000       0.00000000       0.06666667 </v>
    </varray>
   </crystal>
   <varray name="positions" >
    <v>       0.37316970       0.53785430       0.58843277 </v>
    <v>       0.37271847       0.44850332       0.58540777 </v>
    <v>       0.46094534       0.40422522       0.59817201 </v>
    <v>       0.46271578       0.58191356       0.59503897 </v>
    <v>       0.51942977       0.54343663       0.51714067 </v>
    <v>       0.53408108       0.44257597       0.53482067 </v>
    <v>       0.60305932       0.59122190       0.50644461 </v>
    <v>       0.53803424       0.38663383       0.45597904 </v>
    <v>       0.31472323       0.40805617       0.56859040 </v>
    <v>       0.48626609       0.41914796       0.66509705 </v>
    <v>       0.45834792       0.33163924       0.59323466 </v>
    <v>       0.31459781       0.57937972       0.57709508 </v>
    <v>       0.49876021       0.56547117       0.65707790 </v>
    <v>       0.45929492       0.65459336       0.59164869 </v>
    <v>       0.48324390       0.55297082       0.45430952 </v>
    <v>       0.59715284       0.43708284       0.57102189 </v>
    <v>       0.66777798       0.63312849       0.49885391 </v>
    <v>       0.53200836       0.33365503       0.39954378 </v>
   </varray>
  </structure>
  <varray name="forces" >
   <v>      -0.01966082       0.04279050      -0.04064177 </v>
   <v>       0.01632331       0.01542977      -0.14875288 </v>
   <v>       0.00461499      -0.07222965       0.19884157 </v>
   <v>      -0.00568688       0.07531603      -0.06269258 </v>
   <v>       0.06218282       0.11057560      -0.10860473 </v>
   <v>       0.09827887      -0.08426191       0.10432538 </v>
   <v>      -0.32055901      -0.18923280       0.10519926 </v>
   <v>      -0.12307159       0.10527529       0.10819238 </v>
   <v>      -0.14965250       0.10299839       0.19184387 </v>
   <v>      -0.08103243      -0.02919973       0.31881076 </v>
   <v>      -0.01877622      -0.13288049      -0.13164595 </v>
   <v>      -0.10996298      -0.07950864       0.03946627 </v>
   <v>      -0.10656269       0.04085320       0.11338897 </v>
   <v>      -0.03543783       0.13949683      -0.10954826 </v>
   <v>      -0.24548169      -0.04394070      -0.07526876 </v>
   <v>       0.32803195      -0.17037202      -0.02074409 </v>
   <v>       0.57033997       0.28942852      -0.05149038 </v>
   <v>       0.13611275      -0.12053818      -0.43067906 </v>
  </varray>
  <varray name="stress" >
   <v>      -0.10053648       0.01555236      -0.16176556 </v>
   <v>       0.01555236      -0.50611560       0.02741118 </v>
   <v>      -0.16176556       0.02741118      -0.47887311 </v>
  </varray>
  <energy>
   <i name="e_fr_energy">   -116.02170708 </i>
   <i name="e_wo_entrp">   -116.02170708 </i>
   <i name="e_0_energy">   -116.02170708 </i>
  </energy>
  <time name="totalsc">   45.38   45.43</time>
 </calculation>
 <calculation>
  <scstep>
   <time name="dav">    3.05    3.05</time>
   <time name="total">    6.07    6.08</time>
   <energy>
    <i name="alphaZ">      3.36120243 </i>
    <i name="ewald">   3148.15679357 </i>
    <i name="hartreedc">  -4597.47213236 </i>
    <i name="XCdc">    170.89854934 </i>
    <i name="pawpsdc">   4386.13819168 </i>
    <i name="pawaedc">  -4394.46997173 </i>
    <i name="eentropy">     -0.00000000 </i>
    <i name="bandstr">   -638.19730949 </i>
    <i name="atom">   1805.79685712 </i>
    <i name="e_fr_energy">   -115.78781945 </i>
    <i name="e_wo_entrp">   -115.78781945 </i>
    <i name="e_0_energy">   -115.78781945 </i>
   </energy>
  </scstep>
  <scstep>
   <time name="diag">    0.34    0.34</time>
   <time name="diis">    2.11    2.11</time>
   <time name="orth">    0.01    0.01</time>
   <time name="total">    4.18    4.18</time>
   <energy>
    <i name="e_fr_energy">   -115.78882639 </i>
    <i name="e_wo_entrp">   -115.78882639 </i>
    <i name="e_0_energy">   -115.78882639 </i>
   </energy>
  </scstep>
  <scstep>
   <time name="diag">    0.36    0.36</time>
   <time name="diis">    2.17    2.17</time>
   <time name="orth">    0.01    0.01</time>
   <time name="total">    4.30    4.30</time>
   <energy>
    <i name="e_fr_energy">   -115.78897032 </i>
    <i name="e_wo_entrp">   -115.78897032 </i>
    <i name="e_0_energy">   -115.78897032 </i>
   </energy>
  </scstep>
  <scstep>
   <time name="diag">    0.46    0.46</time>
   <time name="diis">    2.26    2.26</time>
   <time name="orth">    0.01    0.01</time>
   <time name="total">    4.51    4.51</time>
   <energy>
    <i name="e_fr_energy">   -115.78907104 </i>
    <i name="e_wo_entrp">   -115.78907104 </i>
    <i name="e_0_energy">   -115.78907104 </i>
   </energy>
  </scstep>
  <scstep>
   <time name="diag">    0.38    0.38</time>
   <time name="diis">    2.20    2.20</time>
   <time name="orth">    0.01    0.01</time>
   <time name="total">    4.35    4.35</time>
   <energy>
    <i name="e_fr_energy">   -115.78911486 </i>
    <i name="e_wo_entrp">   -115.78911486 </i>
    <i name="e_0_energy">   -115.78911486 </i>
   </energy>
  </scstep>
  <scstep>
   <time name="diag">    0.34    0.34</time>
   <time name="diis">    1.65    1.65</time>
   <time name="orth">    0.01    0.01</time>
   <time name="total">    3.82    3.82</time>
   <energy>
    <i name="e_fr_energy">   -115.78912841 </i>
    <i name="e_wo_entrp">   -115.78912841 </i>
    <i name="e_0_energy">   -115.78912841 </i>
   </energy>
  </scstep>
  <scstep>
   <time name="diag">    0.25    0.25</time>
   <time name="diis">    0.81    0.81</time>
   <time name="orth">    0.01    0.01</time>
   <time name="total">    2.44    2.44</time>
   <energy>
    <i name="alphaZ">      3.36120243 </i>
    <i name="ewald">   3148.15679357 </i>
    <i name="hartreedc">  -4596.48604014 </i>
    <i name="XCdc">    170.85082840 </i>
    <i name="pawpsdc">   4361.45141823 </i>
    <i name="pawaedc">  -4369.76572993 </i>
    <i name="eentropy">     -0.00000000 </i>
    <i name="bandstr">   -639.15446388 </i>
    <i name="atom">   1805.79685712 </i>
    <i name="e_fr_energy">   -115.78913420 </i>
    <i name="e_wo_entrp">   -115.78913420 </i>
    <i name="e_0_energy">   -115.78913420 </i>
   </energy>
  </scstep>
  <structure>
   <crystal>
    <varray name="basis" >
     <v>      15.00000000       0.00000000       0.00000000 </v>
     <v>       0.00000000      15.00000000       0.00000000 </v>
     <v>       0.00000000       0.00000000      15.00000000 </v>
    </varray>
    <i name="volume">   3375.00000000 </i>
    <varray name="rec_basis" >
     <v>       0.06666667       0.00000000       0.00000000 </v>
     <v>       0.00000000       0.06666667       0.00000000 </v>
     <v>       0.00000000       0.00000000       0.06666667 </v>
    </varray>
   </crystal>
   <varray name="positions" >
    <v>       0.37317322       0.53780811       0.58840136 </v>
    <v>       0.37282761       0.44847643       0.58529169 </v>
    <v>       0.46106850       0.40416713       0.59847777 </v>
    <v>       0.46267628       0.58196911       0.59492465 </v>
    <v>       0.51944275       0.54355759       0.51697203 </v>
    <v>       0.53414373       0.44245370       0.53484867 </v>
    <v>       0.60303216       0.59117342       0.50652898 </v>
    <v>       0.53741671       0.38667215       0.45587026 </v>
    <v>       0.31467083       0.40803545       0.56890406 </v>
    <v>       0.48636188       0.41926319       0.66546558 </v>
    <v>       0.45852029       0.33148575       0.59323289 </v>
    <v>       0.31446625       0.57916327       0.57708170 </v>
    <v>       0.49865107       0.56552844       0.65721219 </v>
    <v>       0.45920541       0.65475629       0.59148423 </v>
    <v>       0.48294307       0.55298597       0.45419768 </v>
    <v>       0.59757820       0.43675384       0.57062735 </v>
    <v>       0.66820187       0.63322023       0.49877302 </v>
    <v>       0.53138836       0.33370527       0.39912058 </v>
   </varray>
  </structure>
  <varray name="forces" >
   <v>      -0.01788057       0.05122530      -0.06449390 </v>
   <v>       0.01444322      -0.01876436      -0.08784009 </v>
   <v>       0.01787020      -0.07724429       0.14685468 </v>
   <v>       0.01657829       0.11033086       0.00075620 </v>
   <v>      -0.00107803       0.01229551      -0.04552488 </v>
   <v>       0.09004917      -0.03923494       0.10214734 </v>
   <v>       0.39079620       0.27798603      -0.01876850 </v>
   <v>      -0.11900094      -0.16101030      -0.16524894 </v>
   <v>      -0.12708259       0.10388956       0.18195488 </v>
   <v>      -0.09509290      -0.04625124       0.27645715 </v>
   <v>      -0.01913668      -0.07719019      -0.09949975 </v>
   <v>      -0.10142996      -0.07502521       0.04008069 </v>
   <v>      -0.13080018       0.06222594       0.03696167 </v>
   <v>      -0.03452458       0.08555751      -0.10197742 </v>
   <v>      -0.19477915      -0.04747440      -0.04578403 </v>
   <v>       0.26870980      -0.15422386      -0.04486229 </v>
   <v>      -0.10613716      -0.14861370       0.03864152 </v>
   <v>       0.14849586       0.14152181      -0.14985432 </v>
  </varray>
  <varray name="stress" >
   <v>      -0.48178748      -0.16111634      -0.19554771 </v>
   <v>      -0.16111634      -0.82822184      -0.02780929 </v>
   <v>      -0.19554770      -0.02780929      -0.69023034 </v>
  </varray>
  <energy>
   <i name="e_fr_energy">   -116.03478156 </i>
   <i name="e_wo_entrp">   -116.03478156 </i>
   <i name="e_0_energy">   -116.03478156 </i>
  </energy>
  <time name="totalsc">   70.69   71.36</time>
 </calculation>
 <calculation>
  <scstep>
   <time name="dav">    3.23    3.24</time>
   <time name="total">    5.81    5.99</time>
   <energy>
    <i name="alphaZ">      3.36120243 </i>
    <i name="ewald">   3138.97344893 </i>
    <i name="hartreedc">  -4588.55662187 </i>
    <i name="XCdc">    170.74878599 </i>
    <i name="pawpsdc">   4360.92966550 </i>
    <i name="pawaedc">  -4369.24401274 </i>
    <i name="eentropy">     -0.00000000 </i>
    <i name="bandstr">   -637.81297608 </i>
    <i name="atom">   1805.79685712 </i>
    <i name="e_fr_energy">   -115.80365072 </i>
    <i name="e_wo_entrp">   -115.80365072 </i>
    <i name="e_0_energy">   -115.80365072 </i>
   </energy>
  </scstep>
  <scstep>
   <time name="diag">    1.02    1.21</time>
   <time name="diis">    3.75    3.76</time>
   <time name="orth">    0.03    0.03</time>
   <time name="total">    8.13    8.40</time>
   <energy>
    <i name="e_fr_energy">   -115.80868195 </i>
    <i name="e_wo_entrp">   -115.80868195 </i>
    <i name="e_0_energy">   -115.80868195 </i>
   </energy>
  </scstep>
  <scstep>
   <time name="diag">    0.83    0.84</time>
   <time name="diis">    3.94    3.97</time>
   <time name="orth">    0.04    0.04</time>
   <time name="total">    7.80    7.89</time>
   <energy>
    <i name="e_fr_energy">   -115.80957389 </i>
    <i name="e_wo_entrp">   -115.80957389 </i>
    <i name="e_0_energy">   -115.80957389 </i>
   </energy>
  </scstep>
  <scstep>
   <time name="diag">    1.06    1.11</time>
   <time name="diis">    4.75    5.19</time>
   <time name="orth">    0.03    0.03</time>
   <time name="total">    9.94   10.46</time>
   <energy>
    <i name="e_fr_energy">   -115.80996246 </i>
    <i name="e_wo_entrp">   -115.80996246 </i>
    <i name="e_0_energy">   -115.80996246 </i>
   </energy>
  </scstep>
  <scstep>
   <time name="diag">    0.51    0.56</time>
   <time name="diis">    3.38    3.53</time>
   <time name="orth">    0.01    0.01</time>
   <time name="total">    6.51    6.80</time>
   <energy>
    <i name="e_fr_energy">   -115.81007033 </i>
    <i name="e_wo_entrp">   -115.81007033 </i>
    <i name="e_0_energy">   -115.81007033 </i>
   </energy>
  </scstep>
  <scstep>
   <time name="diag">    0.80    0.87</time>
   <time name="diis">    5.11    5.12</time>
   <time name="orth">    0.02    0.03</time>
   <time name="total">    8.65    8.92</time>
   <energy>
    <i name="e_fr_energy">   -115.81009918 </i>
    <i name="e_wo_entrp">   -115.81009918 </i>
    <i name="e_0_energy">   -115.81009918 </i>
   </energy>
  </scstep>
  <scstep>
   <time name="diag">    0.39    0.39</time>
   <time name="diis">    1.49    1.49</time>
   <time name="orth">    0.01    0.01</time>
   <time name="total">    3.61    3.66</time>
   <energy>
    <i name="alphaZ">      3.36120243 </i>
    <i name="ewald">   3138.97344893 </i>
    <i name="hartreedc">  -4587.89318869 </i>
    <i name="XCdc">    170.72786900 </i>
    <i name="pawpsdc">   4341.98110892 </i>
    <i name="pawaedc">  -4350.28816414 </i>
    <i name="eentropy">     -0.00000000 </i>
    <i name="bandstr">   -638.46923924 </i>
    <i name="atom">   1805.79685712 </i>
    <i name="e_fr_energy">   -115.81010566 </i>
    <i name="e_wo_entrp">   -115.81010566 </i>
    <i name="e_0_energy">   -115.81010566 </i>
   </energy>
  </scstep>
  <structure>
   <crystal>
    <varray name="basis" >
     <v>      15.00000000       0.00000000       0.00000000 </v>
     <v>       0.00000000      15.00000000       0.00000000 </v>
     <v>       0.00000000       0.00000000      15.00000000 </v>
    </varray>
    <i name="volume">   3375.00000000 </i>
    <varray name="rec_basis" >
     <v>       0.06666667       0.00000000       0.00000000 </v>
     <v>       0.00000000       0.06666667       0.00000000 </v>
     <v>       0.00000000       0.00000000       0.06666667 </v>
    </varray>
   </crystal>
   <varray name="positions" >
    <v>       0.37316976       0.53774614       0.58827190 </v>
    <v>       0.37307974       0.44833572       0.58508520 </v>
    <v>       0.46139016       0.40399520       0.59915711 </v>
    <v>       0.46263760       0.58218805       0.59475218 </v>
    <v>       0.51945770       0.54374258       0.51664936 </v>
    <v>       0.53430356       0.44220445       0.53490524 </v>
    <v>       0.60351021       0.59143410       0.50661312 </v>
    <v>       0.53595368       0.38654675       0.45541233 </v>
    <v>       0.31454931       0.40801935       0.56967899 </v>
    <v>       0.48654601       0.41949866       0.66634768 </v>
    <v>       0.45892133       0.33118764       0.59324988 </v>
    <v>       0.31414437       0.57863393       0.57706215 </v>
    <v>       0.49831906       0.56571395       0.65742038 </v>
    <v>       0.45898322       0.65507892       0.59107999 </v>
    <v>       0.48225781       0.55300623       0.45395948 </v>
    <v>       0.59856420       0.43595762       0.56964420 </v>
    <v>       0.66870199       0.63309091       0.49866911 </v>
    <v>       0.52996037       0.33405398       0.39828931 </v>
   </varray>
  </structure>
  <varray name="forces" >
   <v>       0.02820069      -0.02405073      -0.09162348 </v>
   <v>       0.03075591       0.02171582       0.04347068 </v>
   <v>       0.04581994      -0.03810923       0.04657052 </v>
   <v>       0.01600738       0.10321678       0.02389602 </v>
   <v>       0.07331532      -0.02082565       0.03731788 </v>
   <v>       0.07211594      -0.02289806       0.00893779 </v>
   <v>      -0.04833030       0.01477069      -0.04409791 </v>
   <v>      -0.03727779      -0.02775575       0.01503631 </v>
   <v>      -0.09185063       0.08715450       0.15389335 </v>
   <v>      -0.12489386      -0.08983529       0.16509785 </v>
   <v>      -0.01715336       0.00618983      -0.03038089 </v>
   <v>      -0.09671703      -0.05055017       0.03490440 </v>
   <v>      -0.14410749       0.09514086      -0.05367353 </v>
   <v>      -0.02871016       0.02505036      -0.08497685 </v>
   <v>      -0.05864168      -0.05393212       0.04634675 </v>
   <v>       0.13601920      -0.12159050      -0.09694143 </v>
   <v>       0.13861575       0.01119092       0.02762934 </v>
   <v>       0.10683217       0.08511775      -0.20140681 </v>
  </varray>
  <varray name="stress" >
   <v>      -0.71848857      -0.11073944      -0.29053395 </v>
   <v>      -0.11073944      -1.09353599      -0.01740499 </v>
   <v>      -0.29053395      -0.01740499      -0.96426049 </v>
  </varray>
  <energy>
   <i name="e_fr_energy">   -116.05577508 </i>
   <i name="e_wo_entrp">   -116.05577508 </i>
   <i name="e_0_energy">   -116.05577508 </i>
  </energy>
  <time name="totalsc">   77.00   79.77</time>
 </calculation>
 <calculation>
  <scstep>
   <time name="dav">    4.24    4.41</time>
   <time name="total">    7.51    7.75</time>
   <energy>
    <i name="alphaZ">      3.36120243 </i>
    <i name="ewald">   3139.56256113 </i>
    <i name="hartreedc">  -4588.39835891 </i>
    <i name="XCdc">    170.73561468 </i>
    <i name="pawpsdc">   4340.66957516 </i>
    <i name="pawaedc">  -4348.97638168 </i>
    <i name="eentropy">     -0.00000000 </i>
    <i name="bandstr">   -638.56149400 </i>
    <i name="atom">   1805.79685712 </i>
    <i name="e_fr_energy">   -115.81042406 </i>
    <i name="e_wo_entrp">   -115.81042406 </i>
    <i name="e_0_energy">   -115.81042406 </i>
   </energy>
  </scstep>
  <scstep>
   <time name="diag">    0.60    0.63</time>
   <time name="diis">    3.49    3.60</time>
   <time name="orth">    0.01    0.01</time>
   <time name="total">    6.33    6.53</time>
   <energy>
    <i name="e_fr_energy">   -115.81043631 </i>
    <i name="e_wo_entrp">   -115.81043631 </i>
    <i name="e_0_energy">   -115.81043631 </i>
   </energy>
  </scstep>
  <scstep>
   <time name="diag">    0.59    0.60</time>
   <time name="diis">    2.39    2.39</time>
   <time name="orth">    0.01    0.01</time>
   <time name="total">    4.65    4.91</time>
   <energy>
    <i name="alphaZ">      3.36120243 </i>
    <i name="ewald">   3139.56256113 </i>
    <i name="hartreedc">  -4588.44005539 </i>
    <i name="XCdc">    170.73671239 </i>
    <i name="pawpsdc">   4341.21287878 </i>
    <i name="pawaedc">  -4349.51987034 </i>
    <i name="eentropy">     -0.00000000 </i>
    <i name="bandstr">   -638.52072988 </i>
    <i name="atom">   1805.79685712 </i>
    <i name="e_fr_energy">   -115.81044375 </i>
    <i name="e_wo_entrp">   -115.81044375 </i>
    <i name="e_0_energy">   -115.81044375 </i>
   </energy>
  </scstep>
  <structure>
   <crystal>
    <varray name="basis" >
     <v>      15.00000000       0.00000000       0.00000000 </v>
     <v>       0.00000000      15.00000000       0.00000000 </v>
     <v>       0.00000000       0.00000000      15.00000000 </v>
    </varray>
    <i name="volume">   3375.00000000 </i>
    <varray name="rec_basis" >
     <v>       0.06666667       0.00000000       0.00000000 </v>
     <v>       0.00000000       0.06666667       0.00000000 </v>
     <v>       0.00000000       0.00000000       0.06666667 </v>
    </varray>
   </crystal>
   <varray name="positions" >
    <v>       0.37318264       0.53773456       0.58824683 </v>
    <v>       0.37308044       0.44833923       0.58513889 </v>
    <v>       0.46140058       0.40399743       0.59911664 </v>
    <v>       0.46265003       0.58220962       0.59478038 </v>
    <v>       0.51948421       0.54371267       0.51669358 </v>
    <v>       0.53430725       0.44221678       0.53488091 </v>
    <v>       0.60346013       0.59141853       0.50658204 </v>
    <v>       0.53600409       0.38654802       0.45544210 </v>
    <v>       0.31454748       0.40803374       0.56968055 </v>
    <v>       0.48651139       0.41946432       0.66632480 </v>
    <v>       0.45890833       0.33122501       0.59326484 </v>
    <v>       0.31413770       0.57864252       0.57706841 </v>
    <v>       0.49829221       0.56573870       0.65736914 </v>
    <v>       0.45898383       0.65505044       0.59107939 </v>
    <v>       0.48230245       0.55299422       0.45399690 </v>
    <v>       0.59852429       0.43596437       0.56963370 </v>
    <v>       0.66869969       0.63308646       0.49868687 </v>
    <v>       0.53000640       0.33407612       0.39829089 </v>
   </varray>
  </structure>
  <varray name="forces" >
   <v>       0.02183251      -0.00004012      -0.07980218 </v>
   <v>       0.02998653       0.01071347       0.02649162 </v>
   <v>       0.03867844      -0.02586582       0.06325938 </v>
   <v>      -0.00164448       0.07587209      -0.01068921 </v>
   <v>       0.05168382      -0.00697310       0.01927408 </v>
   <v>       0.06676946      -0.02846436       0.02822137 </v>
   <v>       0.03363592       0.05805699      -0.04204497 </v>
   <v>      -0.04360556      -0.04025709      -0.01348505 </v>
   <v>      -0.08987509       0.08800639       0.15711226 </v>
   <v>      -0.11917633      -0.08675636       0.16582863 </v>
   <v>      -0.01663303      -0.01077449      -0.03693585 </v>
   <v>      -0.08788991      -0.05747765       0.03506640 </v>
   <v>      -0.12858854       0.08790692      -0.02034597 </v>
   <v>      -0.02891571       0.04656909      -0.08678588 </v>
   <v>      -0.06497783      -0.05446203       0.04602357 </v>
   <v>       0.14965106      -0.12321940      -0.08884571 </v>
   <v>       0.08215373      -0.02259257       0.03136408 </v>
   <v>       0.10691501       0.08975805      -0.19370657 </v>
  </varray>
  <varray name="stress" >
   <v>      -0.71957738      -0.12371777      -0.27185983 </v>
   <v>      -0.12371776      -1.06520393      -0.02288453 </v>
   <v>      -0.27185983      -0.02288453      -0.93234963 </v>
  </varray>
  <energy>
   <i name="e_fr_energy">   -116.05610462 </i>
   <i name="e_wo_entrp">   -116.05610462 </i>
   <i name="e_0_energy">   -116.05610462 </i>
  </energy>
  <time name="totalsc">   36.62   37.52</time>
 </calculation>
 <calculation>
  <scstep>
   <time name="dav">    2.07    2.07</time>
   <time name="total">    3.86    3.86</time>
   <energy>
    <i name="alphaZ">      3.36120243 </i>
    <i name="ewald">   3138.98682106 </i>
    <i name="hartreedc">  -4587.81101617 </i>
    <i name="XCdc">    170.73604408 </i>
    <i name="pawpsdc">   4341.52460496 </i>
    <i name="pawaedc">  -4349.83171826 </i>
    <i name="eentropy">     -0.00000000 </i>
    <i name="bandstr">   -638.57706566 </i>
    <i name="atom">   1805.79685712 </i>
    <i name="e_fr_energy">   -115.81427044 </i>
    <i name="e_wo_entrp">   -115.81427044 </i>
    <i name="e_0_energy">   -115.81427044 </i>
   </energy>
  </scstep>
  <scstep>
   <time name="diag">    0.35    0.35</time>
   <time name="diis">    2.20    2.20</time>
   <time name="orth">    0.01    0.01</time>
   <time name="total">    4.22    4.22</time>
   <energy>
    <i name="e_fr_energy">   -115.81444759 </i>
    <i name="e_wo_entrp">   -115.81444759 </i>
    <i name="e_0_energy">   -115.81444759 </i>
   </energy>
  </scstep>
  <scstep>
   <time name="diag">    0.35    0.35</time>
   <time name="diis">    2.13    2.13</time>
   <time name="orth">    0.01    0.01</time>
   <time name="total">    4.11    4.12</time>
   <energy>
    <i name="e_fr_energy">   -115.81450122 </i>
    <i name="e_wo_entrp">   -115.81450122 </i>
    <i name="e_0_energy">   -115.81450122 </i>
   </energy>
  </scstep>
  <scstep>
   <time name="diag">    0.29    0.29</time>
   <time name="diis">    2.15    2.15</time>
   <time name="orth">    0.01    0.01</time>
   <time name="total">    4.08    4.08</time>
   <energy>
    <i name="e_fr_energy">   -115.81452462 </i>
    <i name="e_wo_entrp">   -115.81452462 </i>
    <i name="e_0_energy">   -115.81452462 </i>
   </energy>
  </scstep>
  <scstep>
   <time name="diag">    0.31    0.31</time>
   <time name="diis">    1.73    1.73</time>
   <time name="orth">    0.01    0.01</time>
   <time name="total">    3.43    3.43</time>
   <energy>
    <i name="alphaZ">      3.36120243 </i>
    <i name="ewald">   3138.98682106 </i>
    <i name="hartreedc">  -4587.89365244 </i>
    <i name="XCdc">    170.74210955 </i>
    <i name="pawpsdc">   4343.79215807 </i>
    <i name="pawaedc">  -4352.10145845 </i>
    <i name="eentropy">     -0.00000000 </i>
    <i name="bandstr">   -638.49856961 </i>
    <i name="atom">   1805.79685712 </i>
    <i name="e_fr_energy">   -115.81453227 </i>
    <i name="e_wo_entrp">   -115.81453227 </i>
    <i name="e_0_energy">   -115.81453227 </i>
   </energy>
  </scstep>
  <structure>
   <crystal>
    <varray name="basis" >
     <v>      15.00000000       0.00000000       0.00000000 </v>
     <v>       0.00000000      15.00000000       0.00000000 </v>
     <v>       0.00000000       0.00000000      15.00000000 </v>
    </varray>
    <i name="volume">   3375.00000000 </i>
    <varray name="rec_basis" >
     <v>       0.06666667       0.00000000       0.00000000 </v>
     <v>       0.00000000       0.06666667       0.00000000 </v>
     <v>       0.00000000       0.00000000       0.06666667 </v>
    </varray>
   </crystal>
   <varray name="positions" >
    <v>       0.37321106       0.53771826       0.58816659 </v>
    <v>       0.37315219       0.44830090       0.58520594 </v>
    <v>       0.46150340       0.40398566       0.59921577 </v>
    <v>       0.46263582       0.58227071       0.59474207 </v>
    <v>       0.51952496       0.54370834       0.51669564 </v>
    <v>       0.53434822       0.44217202       0.53485850 </v>
    <v>       0.60355733       0.59149618       0.50652562 </v>
    <v>       0.53573875       0.38651029       0.45536437 </v>
    <v>       0.31451594       0.40806615       0.56989669 </v>
    <v>       0.48647820       0.41943873       0.66649193 </v>
    <v>       0.45898366       0.33121792       0.59330341 </v>
    <v>       0.31404905       0.57851303       0.57707925 </v>
    <v>       0.49816138       0.56584297       0.65734637 </v>
    <v>       0.45892608       0.65509882       0.59096705 </v>
    <v>       0.48223718       0.55296637       0.45404049 </v>
    <v>       0.59869706       0.43576766       0.56935085 </v>
    <v>       0.66875595       0.63299824       0.49871042 </v>
    <v>       0.52973804       0.33422930       0.39807787 </v>
   </varray>
  </structure>
  <varray name="forces" >
   <v>       0.01097321      -0.01139661      -0.06884218 </v>
   <v>       0.02208888       0.02915347       0.02356608 </v>
   <v>       0.02839887      -0.02280405       0.05592321 </v>
   <v>      -0.00837237       0.06608376      -0.03686090 </v>
   <v>       0.07004574       0.01206428       0.01325834 </v>
   <v>       0.05615274      -0.03146089       0.02480566 </v>
   <v>      -0.18897084      -0.09163693      -0.01134934 </v>
   <v>      -0.02946746       0.00840711       0.02692487 </v>
   <v>      -0.07800488       0.08256786       0.15586627 </v>
   <v>      -0.10802140      -0.08682089       0.15354563 </v>
   <v>      -0.01501636      -0.01184038      -0.03187329 </v>
   <v>      -0.07648961      -0.05797495       0.03251334 </v>
   <v>      -0.11422487       0.08440580      -0.00222861 </v>
   <v>      -0.02742555       0.04950623      -0.08756030 </v>
   <v>      -0.05143275      -0.05522969       0.04841981 </v>
   <v>       0.14282631      -0.11812887      -0.08302811 </v>
   <v>       0.26481491       0.09858122       0.00650574 </v>
   <v>       0.10212544       0.05652351      -0.21958623 </v>
  </varray>
  <varray name="stress" >
   <v>      -0.68383464      -0.07394169      -0.26976550 </v>
   <v>      -0.07394169      -1.05544509      -0.02307473 </v>
   <v>      -0.26976550      -0.02307472      -0.93265191 </v>
  </varray>
  <energy>
   <i name="e_fr_energy">   -116.06019564 </i>
   <i name="e_wo_entrp">   -116.06019564 </i>
   <i name="e_0_energy">   -116.06019564 </i>
  </energy>
  <time name="totalsc">   43.80   44.20</time>
 </calculation>
 <calculation>
  <scstep>
   <time name="dav">    3.59    4.05</time>
   <time name="total">    5.65    6.18</time>
   <energy>
    <i name="alphaZ">      3.36120243 </i>
    <i name="ewald">   3136.44619503 </i>
    <i name="hartreedc">  -4585.81897543 </i>
    <i name="XCdc">    170.71427235 </i>
    <i name="pawpsdc">   4343.73257222 </i>
    <i name="pawaedc">  -4352.04183036 </i>
    <i name="eentropy">     -0.00000000 </i>
    <i name="bandstr">   -638.01131101 </i>
    <i name="atom">   1805.79685712 </i>
    <i name="e_fr_energy">   -115.82101765 </i>
    <i name="e_wo_entrp">   -115.82101765 </i>
    <i name="e_0_energy">   -115.82101765 </i>
   </energy>
  </scstep>
  <scstep>
   <time name="diag">    0.54    0.54</time>
   <time name="diis">    3.48    3.49</time>
   <time name="orth">    0.02    0.02</time>
   <time name="total">    6.23    6.30</time>
   <energy>
    <i name="e_fr_energy">   -115.82180465 </i>
    <i name="e_wo_entrp">   -115.82180465 </i>
    <i name="e_0_energy">   -115.82180465 </i>
   </energy>
  </scstep>
  <scstep>
   <time name="diag">    0.53    0.66</time>
   <time name="diis">    3.12    3.27</time>
   <time name="orth">    0.01    0.01</time>
   <time name="total">    5.91    6.26</time>
   <energy>
    <i name="e_fr_energy">   -115.82201139 </i>
    <i name="e_wo_entrp">   -115.82201139 </i>
    <i name="e_0_energy">   -115.82201139 </i>
   </energy>
  </scstep>
  <scstep>
   <time name="diag">    0.36    0.36</time>
   <time name="diis">    2.58    2.59</time>
   <time name="orth">    0.01    0.01</time>
   <time name="total">    4.82    4.98</time>
   <energy>
    <i name="e_fr_energy">   -115.82209676 </i>
    <i name="e_wo_entrp">   -115.82209676 </i>
    <i name="e_0_energy">   -115.82209676 </i>
   </energy>
  </scstep>
  <scstep>
   <time name="diag">    0.33    0.33</time>
   <time name="diis">    2.02    2.02</time>
   <time name="orth">    0.01    0.01</time>
   <time name="total">    4.75    4.75</time>
   <energy>
    <i name="e_fr_energy">   -115.82211624 </i>
    <i name="e_wo_entrp">   -115.82211624 </i>
    <i name="e_0_energy">   -115.82211624 </i>
   </energy>
  </scstep>
  <scstep>
   <time name="diag">    0.32    0.32</time>
   <time name="diis">    1.38    1.38</time>
   <time name="orth">    0.01    0.01</time>
   <time name="total">    3.13    3.14</time>
   <energy>
    <i name="alphaZ">      3.36120243 </i>
    <i name="ewald">   3136.44619503 </i>
    <i name="hartreedc">  -4585.50716810 </i>
    <i name="XCdc">    170.69997694 </i>
    <i name="pawpsdc">   4335.60651957 </i>
    <i name="pawaedc">  -4343.91025328 </i>
    <i name="eentropy">     -0.00000000 </i>
    <i name="bandstr">   -638.31545425 </i>
    <i name="atom">   1805.79685712 </i>
    <i name="e_fr_energy">   -115.82212453 </i>
    <i name="e_wo_entrp">   -115.82212453 </i>
    <i name="e_0_energy">   -115.82212453 </i>
   </energy>
  </scstep>
  <structure>
   <crystal>
    <varray name="basis" >
     <v>      15.00000000       0.00000000       0.00000000 </v>
     <v>       0.00000000      15.00000000       0.00000000 </v>
     <v>       0.00000000       0.00000000      15.00000000 </v>
    </varray>
    <i name="volume">   3375.00000000 </i>
    <varray name="rec_basis" >
     <v>       0.06666667       0.00000000       0.00000000 </v>
     <v>       0.00000000       0.06666667       0.00000000 </v>
     <v>       0.00000000       0.00000000       0.06666667 </v>
    </varray>
   </crystal>
   <varray name="positions" >
    <v>       0.37324944       0.53768043       0.58803237 </v>
    <v>       0.37328043       0.44824332       0.58530233 </v>
    <v>       0.46168518       0.40395758       0.59941757 </v>
    <v>       0.46260395       0.58237903       0.59464576 </v>
    <v>       0.51960988       0.54372795       0.51667467 </v>
    <v>       0.53441945       0.44207929       0.53482390 </v>
    <v>       0.60356779       0.59152126       0.50646097 </v>
    <v>       0.53522355       0.38647923       0.45524182 </v>
    <v>       0.31446207       0.40811874       0.57030586 </v>
    <v>       0.48643871       0.41940660       0.66681771 </v>
    <v>       0.45913219       0.33118639       0.59337002 </v>
    <v>       0.31388929       0.57826446       0.57709587 </v>
    <v>       0.49793217       0.56602692       0.65733607 </v>
    <v>       0.45881740       0.65520308       0.59075290 </v>
    <v>       0.48209621       0.55291849       0.45410175 </v>
    <v>       0.59904235       0.43539425       0.56882681 </v>
    <v>       0.66903070       0.63294259       0.49872477 </v>
    <v>       0.52921179       0.33447859       0.39764577 </v>
   </varray>
  </structure>
  <varray name="forces" >
   <v>       0.00180556      -0.02186439      -0.05446136 </v>
   <v>       0.01449253       0.04296003       0.02889560 </v>
   <v>       0.01483254      -0.01590657       0.04135529 </v>
   <v>      -0.01788957       0.05405796      -0.05296464 </v>
   <v>       0.03082606      -0.00770021       0.01797797 </v>
   <v>       0.04296312      -0.02955308       0.03034452 </v>
   <v>       0.07745537       0.06214873      -0.04037758 </v>
   <v>      -0.01714364      -0.02168685      -0.02923027 </v>
   <v>      -0.05733525       0.07395722       0.15334206 </v>
   <v>      -0.09346260      -0.08833635       0.12667746 </v>
   <v>      -0.01323390      -0.00641565      -0.01972247 </v>
   <v>      -0.06121497      -0.05574999       0.02850847 </v>
   <v>      -0.09960459       0.08437700       0.00719703 </v>
   <v>      -0.02543090       0.04561319      -0.08827639 </v>
   <v>      -0.02702071      -0.05732815       0.05417939 </v>
   <v>       0.11900177      -0.10624440      -0.07890253 </v>
   <v>       0.01475220      -0.05438431       0.03393120 </v>
   <v>       0.09620700       0.10205584      -0.15847373 </v>
  </varray>
  <varray name="stress" >
   <v>      -0.84227998      -0.12959747      -0.25559546 </v>
   <v>      -0.12959747      -1.16526726      -0.03803298 </v>
   <v>      -0.25559546      -0.03803298      -0.98387379 </v>
  </varray>
  <energy>
   <i name="e_fr_energy">   -116.06774189 </i>
   <i name="e_wo_entrp">   -116.06774189 </i>
   <i name="e_0_energy">   -116.06774189 </i>
  </energy>
  <time name="totalsc">   55.92   57.55</time>
 </calculation>
 <calculation>
  <scstep>
   <time name="dav">    3.39    3.39</time>
   <time name="total">    6.43    6.45</time>
   <energy>
    <i name="alphaZ">      3.36120243 </i>
    <i name="ewald">   3137.27909026 </i>
    <i name="hartreedc">  -4586.06663731 </i>
    <i name="XCdc">    170.71570810 </i>
    <i name="pawpsdc">   4335.42713202 </i>
    <i name="pawaedc">  -4343.73081893 </i>
    <i name="eentropy">     -0.00000000 </i>
    <i name="bandstr">   -638.60744724 </i>
    <i name="atom">   1805.79685712 </i>
    <i name="e_fr_energy">   -115.82491354 </i>
    <i name="e_wo_entrp">   -115.82491354 </i>
    <i name="e_0_energy">   -115.82491354 </i>
   </energy>
  </scstep>
  <scstep>
   <time name="diag">    0.36    0.36</time>
   <time name="diis">    2.30    2.30</time>
   <time name="orth">    0.01    0.01</time>
   <time name="total">    4.54    4.54</time>
   <energy>
    <i name="e_fr_energy">   -115.82497769 </i>
    <i name="e_wo_entrp">   -115.82497769 </i>
    <i name="e_0_energy">   -115.82497769 </i>
   </energy>
  </scstep>
  <scstep>
   <time name="diag">    0.35    0.35</time>
   <time name="diis">    2.18    2.18</time>
   <time name="orth">    0.01    0.01</time>
   <time name="total">    4.23    4.23</time>
   <energy>
    <i name="e_fr_energy">   -115.82500364 </i>
    <i name="e_wo_entrp">   -115.82500364 </i>
    <i name="e_0_energy">   -115.82500364 </i>
   </energy>
  </scstep>
  <scstep>
   <time name="diag">    0.32    0.32</time>
   <time name="diis">    1.99    1.99</time>
   <time name="orth">    0.01    0.01</time>
   <time name="total">    3.86    3.86</time>
   <energy>
    <i name="e_fr_energy">   -115.82501670 </i>
    <i name="e_wo_entrp">   -115.82501670 </i>
    <i name="e_0_energy">   -115.82501670 </i>
   </energy>
  </scstep>
  <scstep>
   <time name="diag">    0.32    0.32</time>
   <time name="diis">    1.47    1.48</time>
   <time name="orth">    0.01    0.01</time>
   <time name="total">    3.29    3.29</time>
   <energy>
    <i name="alphaZ">      3.36120243 </i>
    <i name="ewald">   3137.27909026 </i>
    <i name="hartreedc">  -4586.27215491 </i>
    <i name="XCdc">    170.72557716 </i>
    <i name="pawpsdc">   4339.87269141 </i>
    <i name="pawaedc">  -4348.17972037 </i>
    <i name="eentropy">     -0.00000000 </i>
    <i name="bandstr">   -638.40856430 </i>
    <i name="atom">   1805.79685712 </i>
    <i name="e_fr_energy">   -115.82502120 </i>
    <i name="e_wo_entrp">   -115.82502120 </i>
    <i name="e_0_energy">   -115.82502120 </i>
   </energy>
  </scstep>
  <structure>
   <crystal>
    <varray name="basis" >
[...]
   <v>      -0.00248389      -0.00582518       0.00520835 </v>
   <v>       0.00236349       0.00261435      -0.00250194 </v>
   <v>      -0.00095710       0.00111954       0.01615730 </v>
   <v>       0.00183136      -0.00915931      -0.00083870 </v>
   <v>      -0.00389545      -0.00170456      -0.00545795 </v>
   <v>      -0.00257127      -0.00149470       0.00994329 </v>
   <v>      -0.00182703       0.01529909      -0.00621281 </v>
   <v>      -0.00769276       0.00048293      -0.01584532 </v>
   <v>       0.00445885      -0.00052988      -0.00377333 </v>
   <v>       0.00013757      -0.00109118       0.00049812 </v>
   <v>       0.00934220      -0.00645092       0.01107178 </v>
   <v>       0.00612531       0.00622026      -0.00814762 </v>
  </varray>
  <varray name="stress" >
   <v>      -1.17414011      -0.00235520       0.00010759 </v>
   <v>      -0.00235520      -1.18035102       0.00612669 </v>
   <v>       0.00010759       0.00612670      -1.20461013 </v>
  </varray>
  <energy>
   <i name="e_fr_energy">   -116.18620465 </i>
   <i name="e_wo_entrp">   -116.18620465 </i>
   <i name="e_0_energy">   -116.18620465 </i>
  </energy>
  <time name="totalsc">   32.56   34.21</time>
 </calculation>
 <calculation>
  <scstep>
   <time name="dav">    4.64    4.83</time>
   <time name="total">    7.08    7.43</time>
   <energy>
    <i name="alphaZ">      3.36120243 </i>
    <i name="ewald">   3116.81892825 </i>
    <i name="hartreedc">  -4566.78467336 </i>
    <i name="XCdc">    170.62042422 </i>
    <i name="pawpsdc">   4329.08351147 </i>
    <i name="pawaedc">  -4337.38316218 </i>
    <i name="eentropy">     -0.00000000 </i>
    <i name="bandstr">   -637.45488357 </i>
    <i name="atom">   1805.79685712 </i>
    <i name="e_fr_energy">   -115.94179562 </i>
    <i name="e_wo_entrp">   -115.94179562 </i>
    <i name="e_0_energy">   -115.94179562 </i>
   </energy>
  </scstep>
  <scstep>
   <time name="diag">    0.49    0.49</time>
   <time name="diis">    1.05    1.05</time>
   <time name="orth">    0.01    0.01</time>
   <time name="total">    3.75    4.07</time>
   <energy>
    <i name="alphaZ">      3.36120243 </i>
    <i name="ewald">   3116.81892825 </i>
    <i name="hartreedc">  -4566.78204284 </i>
    <i name="XCdc">    170.62022848 </i>
    <i name="pawpsdc">   4329.03425424 </i>
    <i name="pawaedc">  -4337.33385633 </i>
    <i name="eentropy">     -0.00000000 </i>
    <i name="bandstr">   -637.45736749 </i>
    <i name="atom">   1805.79685712 </i>
    <i name="e_fr_energy">   -115.94179613 </i>
    <i name="e_wo_entrp">   -115.94179613 </i>
    <i name="e_0_energy">   -115.94179613 </i>
   </energy>
  </scstep>
  <structure>
   <crystal>
    <varray name="basis" >
     <v>      15.00000000       0.00000000       0.00000000 </v>
     <v>       0.00000000      15.00000000       0.00000000 </v>
     <v>       0.00000000       0.00000000      15.00000000 </v>
    </varray>
    <i name="volume">   3375.00000000 </i>
    <varray name="rec_basis" >
     <v>       0.06666667       0.00000000       0.00000000 </v>
     <v>       0.00000000       0.06666667       0.00000000 </v>
     <v>       0.00000000       0.00000000       0.06666667 </v>
    </varray>
   </crystal>
   <varray name="positions" >
    <v>       0.37263220       0.53635041       0.58921977 </v>
    <v>       0.37447813       0.44716434       0.59330482 </v>
    <v>       0.46340105       0.40188796       0.60131915 </v>
    <v>       0.45990349       0.58545513       0.58808640 </v>
    <v>       0.52076773       0.54204293       0.51629948 </v>
    <v>       0.53328415       0.43930092       0.53360280 </v>
    <v>       0.60666568       0.58724244       0.50982021 </v>
    <v>       0.52891406       0.39038434       0.44951118 </v>
    <v>       0.31368970       0.40722740       0.59165559 </v>
    <v>       0.49065146       0.41394116       0.66866338 </v>
    <v>       0.45858419       0.32931298       0.59339475 </v>
    <v>       0.31027064       0.57346060       0.58382488 </v>
    <v>       0.49372621       0.58103887       0.65341454 </v>
    <v>       0.45182443       0.65664506       0.57319901 </v>
    <v>       0.48678716       0.55037403       0.45169715 </v>
    <v>       0.60029057       0.42813970       0.56158192 </v>
    <v>       0.67506735       0.62420686       0.50612742 </v>
    <v>       0.52362219       0.35069803       0.38276889 </v>
   </varray>
  </structure>
  <varray name="forces" >
   <v>      -0.00124521      -0.00047626       0.00290641 </v>
   <v>       0.00016333       0.00040109       0.00579226 </v>
   <v>      -0.00081178      -0.00241485      -0.00110197 </v>
   <v>      -0.00291737       0.00285944      -0.00635671 </v>
   <v>      -0.00071238      -0.00058357      -0.00140795 </v>
   <v>      -0.00095267      -0.00071506      -0.00025673 </v>
   <v>       0.00695225      -0.00012665       0.00483714 </v>
   <v>       0.00242857       0.00094103      -0.00437637 </v>
   <v>      -0.00116114       0.00119794       0.01688041 </v>
   <v>       0.00205383      -0.00930610      -0.00068011 </v>
   <v>      -0.00417378      -0.00175923      -0.00555802 </v>
   <v>      -0.00293976      -0.00139842       0.01036428 </v>
   <v>      -0.00196693       0.01595795      -0.00637432 </v>
   <v>      -0.00806587       0.00092964      -0.01626602 </v>
   <v>       0.00461176      -0.00036943      -0.00370069 </v>
   <v>      -0.00020378      -0.00099002       0.00066336 </v>
   <v>       0.00219870      -0.01113427       0.01269238 </v>
   <v>       0.00674224       0.00698677      -0.00805736 </v>
  </varray>
  <varray name="stress" >
   <v>      -1.17729398      -0.00412083      -0.00013716 </v>
   <v>      -0.00412083      -1.18247557       0.00581876 </v>
   <v>      -0.00013716       0.00581876      -1.20586346 </v>
  </varray>
  <energy>
   <i name="e_fr_energy">   -116.18621243 </i>
   <i name="e_wo_entrp">   -116.18621243 </i>
   <i name="e_0_energy">   -116.18621243 </i>
  </energy>
  <time name="totalsc">   22.12   23.46</time>
 </calculation>
 <calculation>
  <scstep>
   <time name="dav">    3.68    3.88</time>
   <time name="total">    6.75    7.09</time>
   <energy>
    <i name="alphaZ">      3.36120243 </i>
    <i name="ewald">   3116.82194316 </i>
    <i name="hartreedc">  -4566.77896047 </i>
    <i name="XCdc">    170.62034646 </i>
    <i name="pawpsdc">   4328.99193274 </i>
    <i name="pawaedc">  -4337.29148922 </i>
    <i name="eentropy">     -0.00000000 </i>
    <i name="bandstr">   -637.46364622 </i>
    <i name="atom">   1805.79685712 </i>
    <i name="e_fr_energy">   -115.94181399 </i>
    <i name="e_wo_entrp">   -115.94181399 </i>
    <i name="e_0_energy">   -115.94181399 </i>
   </energy>
  </scstep>
  <scstep>
   <time name="diag">    0.39    0.41</time>
   <time name="diis">    0.94    1.12</time>
   <time name="orth">    0.00    0.00</time>
   <time name="total">    3.08    3.62</time>
   <energy>
    <i name="alphaZ">      3.36120243 </i>
    <i name="ewald">   3116.82194316 </i>
    <i name="hartreedc">  -4566.78079646 </i>
    <i name="XCdc">    170.62046625 </i>
    <i name="pawpsdc">   4329.00010305 </i>
    <i name="pawaedc">  -4337.29969014 </i>
    <i name="eentropy">     -0.00000000 </i>
    <i name="bandstr">   -637.46189992 </i>
    <i name="atom">   1805.79685712 </i>
    <i name="e_fr_energy">   -115.94181452 </i>
    <i name="e_wo_entrp">   -115.94181452 </i>
    <i name="e_0_energy">   -115.94181452 </i>
   </energy>
  </scstep>
  <structure>
   <crystal>
    <varray name="basis" >
     <v>      15.00000000       0.00000000       0.00000000 </v>
     <v>       0.00000000      15.00000000       0.00000000 </v>
     <v>       0.00000000       0.00000000      15.00000000 </v>
    </varray>
    <i name="volume">   3375.00000000 </i>
    <varray name="rec_basis" >
     <v>       0.06666667       0.00000000       0.00000000 </v>
     <v>       0.00000000       0.06666667       0.00000000 </v>
     <v>       0.00000000       0.00000000       0.06666667 </v>
    </varray>
   </crystal>
   <varray name="positions" >
    <v>       0.37263176       0.53634892       0.58922233 </v>
    <v>       0.37447961       0.44716341       0.59331040 </v>
    <v>       0.46340281       0.40188690       0.60131913 </v>
    <v>       0.45990146       0.58545644       0.58808186 </v>
    <v>       0.52076695       0.54204255       0.51629738 </v>
    <v>       0.53328234       0.43930005       0.53359985 </v>
    <v>       0.60666890       0.58724133       0.50982279 </v>
    <v>       0.52890809       0.39038542       0.44950668 </v>
    <v>       0.31369105       0.40722610       0.59166891 </v>
    <v>       0.49065698       0.41393853       0.66866207 </v>
    <v>       0.45858507       0.32931209       0.59339414 </v>
    <v>       0.31026876       0.57345769       0.58383212 </v>
    <v>       0.49372556       0.58104837       0.65340961 </v>
    <v>       0.45181853       0.65664499       0.57318845 </v>
    <v>       0.48678981       0.55037491       0.45169368 </v>
    <v>       0.60029010       0.42813717       0.56157528 </v>
    <v>       0.67506920       0.62419968       0.50613538 </v>
    <v>       0.52361374       0.35070317       0.38276275 </v>
   </varray>
  </structure>
  <varray name="forces" >
   <v>      -0.00104157      -0.00009462       0.00280134 </v>
   <v>       0.00008964       0.00010200       0.00571441 </v>
   <v>      -0.00067427      -0.00230756      -0.00102189 </v>
   <v>      -0.00283467       0.00303138      -0.00630523 </v>
   <v>       0.00026236      -0.00011722      -0.00121257 </v>
   <v>      -0.00073726      -0.00090263      -0.00046097 </v>
   <v>      -0.00053280      -0.00401081       0.00511135 </v>
   <v>       0.00233507       0.00149239      -0.00339075 </v>
   <v>      -0.00097405       0.00124811       0.01687509 </v>
   <v>       0.00217684      -0.00922270      -0.00056282 </v>
   <v>      -0.00402986      -0.00180365      -0.00550567 </v>
   <v>      -0.00272417      -0.00143461       0.01044225 </v>
   <v>      -0.00181880       0.01590467      -0.00622557 </v>
   <v>      -0.00790628       0.00069155      -0.01614821 </v>
   <v>       0.00469174      -0.00035653      -0.00376928 </v>
   <v>      -0.00016949      -0.00096925       0.00066544 </v>
   <v>       0.00752687      -0.00777048       0.01197995 </v>
   <v>       0.00636069       0.00651996      -0.00898686 </v>
  </varray>
  <varray name="stress" >
   <v>      -1.17467905      -0.00330217       0.00006059 </v>
   <v>      -0.00330217      -1.18046304       0.00593879 </v>
   <v>       0.00006058       0.00593879      -1.20428105 </v>
  </varray>
  <energy>
   <i name="e_fr_energy">   -116.18622982 </i>
   <i name="e_wo_entrp">   -116.18622982 </i>
   <i name="e_0_energy">   -116.18622982 </i>
  </energy>
  <time name="totalsc">   19.74   20.86</time>
 </calculation>
 <calculation>
  <scstep>
   <time name="dav">    2.57    2.58</time>
   <time name="total">    4.99    5.20</time>
   <energy>
    <i name="alphaZ">      3.36120243 </i>
    <i name="ewald">   3116.76502775 </i>
    <i name="hartreedc">  -4566.73063754 </i>
    <i name="XCdc">    170.62046910 </i>
    <i name="pawpsdc">   4329.01514603 </i>
    <i name="pawaedc">  -4337.31475404 </i>
    <i name="eentropy">     -0.00000000 </i>
    <i name="bandstr">   -637.45522976 </i>
    <i name="atom">   1805.79685712 </i>
    <i name="e_fr_energy">   -115.94191891 </i>
    <i name="e_wo_entrp">   -115.94191891 </i>
    <i name="e_0_energy">   -115.94191891 </i>
   </energy>
  </scstep>
  <scstep>
   <time name="diag">    0.67    0.84</time>
   <time name="diis">    2.97    3.01</time>
   <time name="orth">    0.02    0.02</time>
   <time name="total">    5.91    6.17</time>
   <energy>
    <i name="e_fr_energy">   -115.94195747 </i>
    <i name="e_wo_entrp">   -115.94195747 </i>
    <i name="e_0_energy">   -115.94195747 </i>
   </energy>
  </scstep>
  <scstep>
   <time name="diag">    0.37    0.38</time>
   <time name="diis">    2.59    2.59</time>
   <time name="orth">    0.01    0.01</time>
   <time name="total">    5.01    5.10</time>
   <energy>
    <i name="e_fr_energy">   -115.94196983 </i>
    <i name="e_wo_entrp">   -115.94196983 </i>
    <i name="e_0_energy">   -115.94196983 </i>
   </energy>
  </scstep>
  <scstep>
   <time name="diag">    0.52    0.52</time>
   <time name="diis">    2.14    2.15</time>
   <time name="orth">    0.01    0.01</time>
   <time name="total">    4.52    4.56</time>
   <energy>
    <i name="alphaZ">      3.36120243 </i>
    <i name="ewald">   3116.76502775 </i>
    <i name="hartreedc">  -4566.72852417 </i>
    <i name="XCdc">    170.62019761 </i>
    <i name="pawpsdc">   4329.15141145 </i>
    <i name="pawaedc">  -4337.45100843 </i>
    <i name="eentropy">     -0.00000000 </i>
    <i name="bandstr">   -637.45713751 </i>
    <i name="atom">   1805.79685712 </i>
    <i name="e_fr_energy">   -115.94197375 </i>
    <i name="e_wo_entrp">   -115.94197375 </i>
    <i name="e_0_energy">   -115.94197375 </i>
   </energy>
  </scstep>
  <structure>
   <crystal>
    <varray name="basis" >
     <v>      15.00000000       0.00000000       0.00000000 </v>
     <v>       0.00000000      15.00000000       0.00000000 </v>
     <v>       0.00000000       0.00000000      15.00000000 </v>
    </varray>
    <i name="volume">   3375.00000000 </i>
    <varray name="rec_basis" >
     <v>       0.06666667       0.00000000       0.00000000 </v>
     <v>       0.00000000       0.06666667       0.00000000 </v>
     <v>       0.00000000       0.00000000       0.06666667 </v>
    </varray>
   </crystal>
   <varray name="positions" >
    <v>       0.37262929       0.53633184       0.58924751 </v>
    <v>       0.37449863       0.44715047       0.59336609 </v>
    <v>       0.46342663       0.40187893       0.60132214 </v>
    <v>       0.45988262       0.58546641       0.58803937 </v>
    <v>       0.52076010       0.54204140       0.51627405 </v>
    <v>       0.53326193       0.43929037       0.53356315 </v>
    <v>       0.60667511       0.58721989       0.50984670 </v>
    <v>       0.52882812       0.39039534       0.44945796 </v>
    <v>       0.31371100       0.40720893       0.59179913 </v>
    <v>       0.49072302       0.41392415       0.66864842 </v>
    <v>       0.45860314       0.32930414       0.59340070 </v>
    <v>       0.31025155       0.57342446       0.58389994 </v>
    <v>       0.49372342       0.58113449       0.65336121 </v>
    <v>       0.45176106       0.65664186       0.57309361 </v>
    <v>       0.48681207       0.55038921       0.45165782 </v>
    <v>       0.60028694       0.42810916       0.56149195 </v>
    <v>       0.67510184       0.62414000       0.50621028 </v>
    <v>       0.52349282       0.35074842       0.38269524 </v>
   </varray>
  </structure>
  <varray name="forces" >
   <v>      -0.00066043       0.00160377       0.00246288 </v>
   <v>      -0.00188742      -0.00093684       0.00601548 </v>
   <v>      -0.00111440      -0.00257803      -0.00122580 </v>
   <v>      -0.00344343       0.00495794      -0.00699053 </v>
   <v>       0.00007994      -0.00075019      -0.00082640 </v>
   <v>       0.00003464      -0.00114427      -0.00158914 </v>
   <v>       0.00488624      -0.00204226       0.00455614 </v>
   <v>       0.00187921       0.00200012      -0.00326229 </v>
   <v>      -0.00112587       0.00075564       0.01614953 </v>
   <v>       0.00186274      -0.00895800      -0.00036461 </v>
   <v>      -0.00405579      -0.00207431      -0.00590354 </v>
   <v>      -0.00217323      -0.00185061       0.01014082 </v>
   <v>      -0.00165809       0.01478242      -0.00533338 </v>
   <v>      -0.00758105      -0.00012265      -0.01617177 </v>
   <v>       0.00441789      -0.00080770      -0.00392724 </v>
   <v>      -0.00043166      -0.00095442       0.00044371 </v>
   <v>       0.00331852      -0.00905993       0.01145023 </v>
   <v>       0.00765217       0.00717933      -0.00562408 </v>
  </varray>
  <varray name="stress" >
   <v>      -1.17614458      -0.00322252      -0.00034513 </v>
   <v>      -0.00322252      -1.18099773       0.00536322 </v>
   <v>      -0.00034513       0.00536321      -1.20566266 </v>
  </varray>
  <energy>
   <i name="e_fr_energy">   -116.18637686 </i>
   <i name="e_wo_entrp">   -116.18637686 </i>
   <i name="e_0_energy">   -116.18637686 </i>
  </energy>
  <time name="totalsc">   33.01   33.92</time>
  <eigenvalues>
   <array>
    <dimension dim="1">band</dimension>
    <dimension dim="2">kpoint</dimension>
    <dimension dim="3">spin</dimension>
    <field>eigene</field>
    <field>occ</field>
    <set>
     <set comment="spin 1">
      <set comment="kpoint 1">
       <r>  -22.8294    1.0000 </r>
       <r>  -22.5184    1.0000 </r>
       <r>  -21.7475    1.0000 </r>
       <r>  -19.7054    1.0000 </r>
       <r>  -19.5362    1.0000 </r>
       <r>  -16.6865    1.0000 </r>
       <r>  -16.4372    1.0000 </r>
       <r>  -13.7475    1.0000 </r>
       <r>  -13.6057    1.0000 </r>
       <r>  -13.2994    1.0000 </r>
       <r>  -11.7966    1.0000 </r>
       <r>  -11.4644    1.0000 </r>
       <r>  -11.0983    1.0000 </r>
       <r>  -10.5186    1.0000 </r>
       <r>  -10.2654    1.0000 </r>
       <r>   -9.8596    1.0000 </r>
       <r>   -9.1294    1.0000 </r>
       <r>   -8.8086    1.0000 </r>
       <r>   -8.5449    1.0000 </r>
       <r>   -8.4254    1.0000 </r>
       <r>   -8.2857    1.0000 </r>
       <r>   -8.0899    1.0000 </r>
       <r>   -7.8939    1.0000 </r>
       <r>   -7.8260    1.0000 </r>
       <r>   -6.6089    1.0000 </r>
       <r>   -1.4898    0.0000 </r>
       <r>   -1.0964    0.0000 </r>
       <r>   -0.7170    0.0000 </r>
       <r>   -0.5889    0.0000 </r>
       <r>   -0.3434    0.0000 </r>
       <r>   -0.3263    0.0000 </r>
       <r>    0.0656    0.0000 </r>
       <r>    0.1117    0.0000 </r>
       <r>    0.1708    0.0000 </r>
       <r>    0.4357    0.0000 </r>
      </set>
     </set>
    </set>
   </array>
  </eigenvalues>
  <separator name="orbital magnetization" >
   <v name="MAGDIPOLOUT">      0.00000000      0.00000000      0.00000000</v>
  </separator>
 </calculation>
 <structure name="finalpos" >
  <crystal>
   <varray name="basis" >
    <v>      15.00000000       0.00000000       0.00000000 </v>
    <v>       0.00000000      15.00000000       0.00000000 </v>
    <v>       0.00000000       0.00000000      15.00000000 </v>
   </varray>
   <i name="volume">   3375.00000000 </i>
   <varray name="rec_basis" >
    <v>       0.06666667       0.00000000       0.00000000 </v>
    <v>       0.00000000       0.06666667       0.00000000 </v>
    <v>       0.00000000       0.00000000       0.06666667 </v>
   </varray>
  </crystal>
  <varray name="positions" >
   <v>       0.37262929       0.53633184       0.58924751 </v>
   <v>       0.37449863       0.44715047       0.59336609 </v>
   <v>       0.46342663       0.40187893       0.60132214 </v>
   <v>       0.45988262       0.58546641       0.58803937 </v>
   <v>       0.52076010       0.54204140       0.51627405 </v>
   <v>       0.53326193       0.43929037       0.53356315 </v>
   <v>       0.60667511       0.58721989       0.50984670 </v>
   <v>       0.52882812       0.39039534       0.44945796 </v>
   <v>       0.31371100       0.40720893       0.59179913 </v>
   <v>       0.49072302       0.41392415       0.66864842 </v>
   <v>       0.45860314       0.32930414       0.59340070 </v>
   <v>       0.31025155       0.57342446       0.58389994 </v>
   <v>       0.49372342       0.58113449       0.65336121 </v>
   <v>       0.45176106       0.65664186       0.57309361 </v>
   <v>       0.48681207       0.55038921       0.45165782 </v>
   <v>       0.60028694       0.42810916       0.56149195 </v>
   <v>       0.67510184       0.62414000       0.50621028 </v>
   <v>       0.52349282       0.35074842       0.38269524 </v>
  </varray>
 </structure>
</modeling>
