   17   17 5000    1
  0.2149333E+03  0.1540225E-08  0.1540225E-08  0.1540225E-08  0.1000000E-15
  1.000000000000000E-004
  CAR 
 unknown system                          
     42      1     30
 
  0.0000000E+00  0.0000000E+00  0.0000000E+00  0.1000000E+01
      1        -22.253297   1.000000
      2        -21.155414   1.000000
      3        -19.103473   1.000000
      4        -18.645626   1.000000
      5        -15.947442   1.000000
      6        -15.399657   1.000000
      7        -12.994134   1.000000
      8        -12.639921   1.000000
      9        -12.488011   1.000000
     10        -10.741669   1.000000
     11        -10.624312   1.000000
     12        -10.245192   1.000000
     13         -9.811950   1.000000
     14         -9.561863   1.000000
     15         -8.713246   1.000000
     16         -8.542926   1.000000
     17         -8.263064   1.000000
     18         -7.754644   1.000000
     19         -7.549834   1.000000
     20         -7.511536   1.000000
     21         -6.192020   1.000000
     22         -1.039232   0.000000
     23         -0.707666   0.000000
     24         -0.211330   0.000000
     25         -0.195010   0.000000
     26         -0.001006   0.000000
     27          0.119685   0.000000
     28          0.190692   0.000000
     29          0.386166   0.000000
     30          0.501494   0.000000
