 vasp.6.3.2 27Jun22 (build Oct 05 2023 17:59:42) gamma-only                     
  
 POSCAR found type information on POSCAR C H N 
 04/POSCAR found :  3 types and      17 ions
 scaLAPACK will be used
 -----------------------------------------------------------------------------
|                                                                             |
|               ----> ADVICE to this user running VASP <----                  |
|                                                                             |
|     You have a (more or less) 'large supercell' and for larger cells it     |
|     might be more efficient to use real-space projection operators.         |
|     Therefore, try LREAL= Auto in the INCAR file.                           |
|     Mind: For very accurate calculation, you might also keep the            |
|     reciprocal projection scheme (i.e. LREAL=.FALSE.).                      |
|                                                                             |
 -----------------------------------------------------------------------------

 LDA part: xc-table for Pade appr. of Perdew
 POSCAR found type information on POSCAR C H N 
 00/POSCAR found :  3 types and      17 ions
 POSCAR found type information on POSCAR C H N 
 10/POSCAR found :  3 types and      17 ions
 Jacobian:    24.6978413598026     
 POSCAR found type information on POSCAR C H N 
 00/POSCAR found :  3 types and      17 ions
 POSCAR found type information on POSCAR C H N 
 10/POSCAR found :  3 types and      17 ions
 POSCAR, INCAR and KPOINTS ok, starting setup
 FFT: planning ... GRIDC
 FFT: planning ... GRID_SOFT
 FFT: planning ... GRID
 WAVECAR not read
 entering main loop
       N       E                     dE             d eps       ncg     rms          rms(c)
DAV:   1     0.328435835306E+03    0.32844E+03   -0.10230E+04    76   0.668E+02
DAV:   2     0.688514293134E+02   -0.25958E+03   -0.24492E+03    88   0.136E+02
DAV:   3    -0.940860015332E+02   -0.16294E+03   -0.16235E+03    80   0.107E+02
DAV:   4    -0.113486041366E+03   -0.19400E+02   -0.19357E+02    80   0.540E+01
DAV:   5    -0.113766513820E+03   -0.28047E+00   -0.27914E+00    88   0.771E+00    0.168E+01
RMM:   6    -0.105544154120E+03    0.82224E+01   -0.11094E+01    60   0.136E+01    0.919E+00
RMM:   7    -0.103485225538E+03    0.20589E+01   -0.10184E+01    60   0.127E+01    0.392E+00
RMM:   8    -0.103305460234E+03    0.17977E+00   -0.73516E-01    60   0.442E+00    0.239E+00
RMM:   9    -0.103200450029E+03    0.10501E+00   -0.46351E-01    60   0.295E+00    0.692E-01
RMM:  10    -0.103195875409E+03    0.45746E-02   -0.76039E-02    64   0.124E+00    0.317E-01
RMM:  11    -0.103206234940E+03   -0.10360E-01   -0.12019E-01    60   0.128E+00    0.439E-01
RMM:  12    -0.103200059572E+03    0.61754E-02   -0.11363E-02    61   0.529E-01    0.253E-01
RMM:  13    -0.103207069309E+03   -0.70097E-02   -0.25051E-02    60   0.599E-01    0.123E-01
RMM:  14    -0.103209819041E+03   -0.27497E-02   -0.49121E-03    60   0.302E-01    0.739E-02
RMM:  15    -0.103221156903E+03   -0.11338E-01   -0.42705E-03    61   0.227E-01    0.413E-02
RMM:  16    -0.103224380062E+03   -0.32232E-02   -0.10583E-03    63   0.112E-01    0.309E-02
RMM:  17    -0.103228100516E+03   -0.37205E-02   -0.87269E-04    60   0.102E-01    0.158E-02
RMM:  18    -0.103228555602E+03   -0.45509E-03   -0.19232E-04    57   0.454E-02    0.128E-02
RMM:  19    -0.103229283527E+03   -0.72792E-03   -0.12736E-04    58   0.412E-02    0.132E-02
RMM:  20    -0.103229428850E+03   -0.14532E-03   -0.38460E-05    47   0.205E-02    0.613E-03
RMM:  21    -0.103229551506E+03   -0.12266E-03   -0.23522E-05    43   0.179E-02    0.405E-03
RMM:  22    -0.103229588347E+03   -0.36841E-04   -0.37260E-06    39   0.870E-03    0.208E-03
RMM:  23    -0.103229611737E+03   -0.23391E-04   -0.20058E-06    38   0.579E-03    0.831E-04
RMM:  24    -0.103229620329E+03   -0.85913E-05   -0.26043E-07    22   0.320E-03
   1 F= -.10343164E+03 E0= -.10343164E+03  d E =-.103432E+03
 BRION: g(F)=  0.400E+00 g(S)=  0.000E+00
 bond charge predicted
       N       E                     dE             d eps       ncg     rms          rms(c)
DAV:   1    -0.103259211205E+03   -0.29599E-01   -0.38558E+00    72   0.114E+01    0.391E-01
RMM:   2    -0.103262226389E+03   -0.30152E-02   -0.62005E-02    60   0.143E+00    0.257E-01
RMM:   3    -0.103262054045E+03    0.17234E-03   -0.14603E-02    61   0.670E-01    0.626E-02
RMM:   4    -0.103262372170E+03   -0.31813E-03   -0.32410E-03    67   0.312E-01    0.487E-02
RMM:   5    -0.103262410739E+03   -0.38569E-04   -0.59654E-04    67   0.127E-01    0.366E-02
RMM:   6    -0.103262426819E+03   -0.16080E-04   -0.97482E-05    59   0.513E-02    0.726E-03
RMM:   7    -0.103262433157E+03   -0.63377E-05   -0.21207E-05    43   0.219E-02
   2 F= -.10346419E+03 E0= -.10346419E+03  d E =-.325523E-01
 BRION: g(F)=  0.319E+00 g(S)=  0.000E+00 retain N=  1 mean eig= 1.51
 eig:   1.513
 bond charge predicted
       N       E                     dE             d eps       ncg     rms          rms(c)
DAV:   1    -0.103221359303E+03    0.41068E-01   -0.63460E+00    66   0.149E+01    0.523E-01
RMM:   2    -0.103226121215E+03   -0.47619E-02   -0.10405E-01    60   0.188E+00    0.339E-01
RMM:   3    -0.103225867316E+03    0.25390E-03   -0.24520E-02    61   0.882E-01    0.973E-02
RMM:   4    -0.103226439202E+03   -0.57189E-03   -0.56877E-03    68   0.412E-01    0.762E-02
RMM:   5    -0.103226461347E+03   -0.22145E-04   -0.83803E-04    62   0.162E-01    0.541E-02
RMM:   6    -0.103226514056E+03   -0.52709E-04   -0.33081E-04    61   0.919E-02    0.139E-02
RMM:   7    -0.103226517255E+03   -0.31981E-05   -0.56276E-05    53   0.419E-02
   3 F= -.10342807E+03 E0= -.10342807E+03  d E =0.361265E-01
 BRION: g(F)=  0.289E+00 g(S)=  0.000E+00 retain N=  2 mean eig= 1.51
 eig:   1.511  1.511
 bond charge predicted
       N       E                     dE             d eps       ncg     rms          rms(c)
DAV:   1    -0.103178406568E+03    0.48107E-01   -0.20327E+00    60   0.867E+00    0.331E-01
RMM:   2    -0.103179868473E+03   -0.14619E-02   -0.34684E-02    60   0.111E+00    0.210E-01
RMM:   3    -0.103179739784E+03    0.12869E-03   -0.72594E-03    61   0.494E-01    0.751E-02
RMM:   4    -0.103179938351E+03   -0.19857E-03   -0.19608E-03    64   0.248E-01    0.414E-02
RMM:   5    -0.103179960430E+03   -0.22079E-04   -0.38737E-04    65   0.104E-01    0.188E-02
RMM:   6    -0.103179985359E+03   -0.24929E-04   -0.81519E-05    55   0.472E-02    0.671E-03
RMM:   7    -0.103179996024E+03   -0.10665E-04   -0.18113E-05    39   0.211E-02    0.465E-03
RMM:   8    -0.103180016625E+03   -0.20601E-04   -0.64694E-06    39   0.133E-02    0.174E-03
RMM:   9    -0.103180019453E+03   -0.28276E-05   -0.16655E-06    39   0.706E-03
   4 F= -.10338137E+03 E0= -.10338137E+03  d E =0.466920E-01
 BRION: g(F)=  0.271E+00 g(S)=  0.000E+00 retain N=  3 mean eig= 1.67
 eig:   1.936  1.936  1.130
 bond charge predicted
       N       E                     dE             d eps       ncg     rms          rms(c)
DAV:   1    -0.103155681451E+03    0.24335E-01   -0.13885E+00    60   0.715E+00    0.271E-01
RMM:   2    -0.103156407939E+03   -0.72649E-03   -0.18123E-02    60   0.804E-01    0.167E-01
RMM:   3    -0.103156533452E+03   -0.12551E-03   -0.44646E-03    61   0.369E-01    0.509E-02
RMM:   4    -0.103156639658E+03   -0.10621E-03   -0.99982E-04    67   0.170E-01    0.377E-02
RMM:   5    -0.103156643149E+03   -0.34911E-05   -0.18270E-04    61   0.782E-02    0.223E-02
RMM:   6    -0.103156660939E+03   -0.17791E-04   -0.77348E-05    59   0.457E-02    0.112E-02
RMM:   7    -0.103156661954E+03   -0.10151E-05   -0.26112E-05    40   0.251E-02
   5 F= -.10335791E+03 E0= -.10335791E+03  d E =0.234630E-01
 BRION: g(F)=  0.251E+00 g(S)=  0.000E+00 retain N=  4 mean eig= 2.61
 eig:   3.423  3.423  2.476  1.116
 bond charge predicted
       N       E                     dE             d eps       ncg     rms          rms(c)
DAV:   1    -0.103153402685E+03    0.32583E-02   -0.10588E+01    60   0.196E+01    0.738E-01
RMM:   2    -0.103159697916E+03   -0.62952E-02   -0.11598E-01    60   0.202E+00    0.456E-01
RMM:   3    -0.103160424260E+03   -0.72634E-03   -0.24672E-02    60   0.902E-01    0.107E-01
RMM:   4    -0.103161197867E+03   -0.77361E-03   -0.70908E-03    66   0.429E-01    0.695E-02
RMM:   5    -0.103161247693E+03   -0.49825E-04   -0.10322E-03    62   0.189E-01    0.321E-02
RMM:   6    -0.103161323886E+03   -0.76194E-04   -0.32088E-04    68   0.994E-02    0.146E-02
RMM:   7    -0.103161365575E+03   -0.41688E-04   -0.45759E-05    49   0.362E-02    0.822E-03
RMM:   8    -0.103161436446E+03   -0.70872E-04   -0.19889E-05    40   0.227E-02    0.411E-03
RMM:   9    -0.103161453766E+03   -0.17320E-04   -0.46365E-06    39   0.111E-02    0.194E-03
RMM:  10    -0.103161537483E+03   -0.83717E-04   -0.11633E-05    40   0.121E-02    0.355E-03
RMM:  11    -0.103161539565E+03   -0.20824E-05   -0.19856E-06    38   0.581E-03
   6 F= -.10336239E+03 E0= -.10336239E+03  d E =-.447892E-02
 BRION: g(F)=  0.182E+00 g(S)=  0.000E+00 retain N=  3 mean eig= 2.85
 eig:   5.704  1.420  1.420
 bond charge predicted
       N       E                     dE             d eps       ncg     rms          rms(c)
DAV:   1    -0.103034496602E+03    0.12704E+00   -0.30891E+01    60   0.333E+01    0.125E+00
RMM:   2    -0.103057318119E+03   -0.22822E-01   -0.36620E-01    60   0.357E+00    0.771E-01
RMM:   3    -0.103059704319E+03   -0.23862E-02   -0.74504E-02    61   0.156E+00    0.236E-01
RMM:   4    -0.103061765034E+03   -0.20607E-02   -0.19276E-02    65   0.744E-01    0.105E-01
RMM:   5    -0.103061969887E+03   -0.20485E-03   -0.33515E-03    63   0.334E-01    0.412E-02
RMM:   6    -0.103062141938E+03   -0.17205E-03   -0.92607E-04    70   0.166E-01    0.276E-02
RMM:   7    -0.103062204335E+03   -0.62397E-04   -0.83014E-05    60   0.468E-02    0.176E-02
RMM:   8    -0.103062370070E+03   -0.16573E-03   -0.66133E-05    56   0.369E-02    0.822E-03
RMM:   9    -0.103062389325E+03   -0.19255E-04   -0.85897E-06    39   0.160E-02    0.376E-03
RMM:  10    -0.103062566395E+03   -0.17707E-03   -0.36165E-05    48   0.216E-02    0.720E-03
RMM:  11    -0.103062572159E+03   -0.57636E-05   -0.56317E-06    39   0.979E-03
   7 F= -.10326259E+03 E0= -.10326259E+03  d E =0.998025E-01
 BRION: g(F)=  0.122E+00 g(S)=  0.000E+00 retain N=  4 mean eig= 4.69
 eig:   7.853  7.853  1.531  1.531
 bond charge predicted
       N       E                     dE             d eps       ncg     rms          rms(c)
DAV:   1    -0.103011368574E+03    0.51198E-01   -0.45228E+00    60   0.127E+01    0.483E-01
RMM:   2    -0.103014535081E+03   -0.31665E-02   -0.54428E-02    60   0.134E+00    0.301E-01
RMM:   3    -0.103014995117E+03   -0.46004E-03   -0.11270E-02    61   0.603E-01    0.786E-02
RMM:   4    -0.103015297204E+03   -0.30209E-03   -0.26910E-03    65   0.282E-01    0.449E-02
RMM:   5    -0.103015347983E+03   -0.50779E-04   -0.56454E-04    63   0.133E-01    0.162E-02
RMM:   6    -0.103015374665E+03   -0.26682E-04   -0.11811E-04    61   0.623E-02    0.111E-02
RMM:   7    -0.103015401380E+03   -0.26715E-04   -0.17627E-05    40   0.226E-02    0.558E-03
RMM:   8    -0.103015436622E+03   -0.35242E-04   -0.75395E-06    39   0.138E-02    0.172E-03
RMM:   9    -0.103015462591E+03   -0.25970E-04   -0.31070E-06    39   0.809E-03    0.831E-04
RMM:  10    -0.103015492123E+03   -0.29532E-04   -0.27516E-06    35   0.612E-03    0.780E-04
RMM:  11    -0.103015509595E+03   -0.17472E-04   -0.17526E-06    29   0.481E-03    0.624E-04
RMM:  12    -0.103015519199E+03   -0.96042E-05   -0.14170E-06    29   0.439E-03
   8 F= -.10321531E+03 E0= -.10321531E+03  d E =0.472816E-01
 BRION: g(F)=  0.892E-01 g(S)=  0.000E+00 retain N=  2 mean eig= 4.24
 eig:   4.240  4.240
 bond charge predicted
       N       E                     dE             d eps       ncg     rms          rms(c)
DAV:   1    -0.102930492740E+03    0.85017E-01   -0.61857E+00    60   0.148E+01    0.579E-01
RMM:   2    -0.102934836755E+03   -0.43440E-02   -0.72602E-02    60   0.156E+00    0.350E-01
RMM:   3    -0.102935664227E+03   -0.82747E-03   -0.15075E-02    61   0.696E-01    0.100E-01
RMM:   4    -0.102936079336E+03   -0.41511E-03   -0.36658E-03    66   0.325E-01    0.525E-02
RMM:   5    -0.102936132415E+03   -0.53079E-04   -0.68381E-04    63   0.147E-01    0.224E-02
RMM:   6    -0.102936167261E+03   -0.34845E-04   -0.15871E-04    61   0.724E-02    0.138E-02
RMM:   7    -0.102936187763E+03   -0.20502E-04   -0.28304E-05    42   0.292E-02    0.905E-03
RMM:   8    -0.102936229383E+03   -0.41620E-04   -0.16019E-05    40   0.202E-02    0.459E-03
RMM:   9    -0.102936232821E+03   -0.34381E-05   -0.24375E-06    39   0.880E-03
   9 F= -.10313566E+03 E0= -.10313566E+03  d E =0.796431E-01
 BRION: g(F)=  0.700E-01 g(S)=  0.000E+00 retain N=  2 mean eig= 3.16
 eig:   3.165  3.165
 bond charge predicted
       N       E                     dE             d eps       ncg     rms          rms(c)
DAV:   1    -0.102922102509E+03    0.14127E-01   -0.15547E+00    60   0.742E+00    0.315E-01
RMM:   2    -0.102923283363E+03   -0.11809E-02   -0.20352E-02    60   0.817E-01    0.180E-01
RMM:   3    -0.102923546578E+03   -0.26321E-03   -0.37592E-03    60   0.358E-01    0.690E-02
RMM:   4    -0.102923675912E+03   -0.12933E-03   -0.10000E-03    63   0.172E-01    0.367E-02
RMM:   5    -0.102923700412E+03   -0.24500E-04   -0.19613E-04    64   0.802E-02    0.174E-02
RMM:   6    -0.102923716097E+03   -0.15685E-04   -0.44348E-05    49   0.401E-02    0.643E-03
RMM:   7    -0.102923724385E+03   -0.82872E-05   -0.14592E-05    41   0.212E-02
  10 F= -.10312299E+03 E0= -.10312299E+03  d E =0.126724E-01
 BRION: g(F)=  0.602E-01 g(S)=  0.000E+00 retain N=  3 mean eig= 3.98
 eig:   5.289  5.289  1.352
 bond charge predicted
       N       E                     dE             d eps       ncg     rms          rms(c)
DAV:   1    -0.102891682985E+03    0.32033E-01   -0.30556E+00    60   0.104E+01    0.447E-01
RMM:   2    -0.102894011326E+03   -0.23283E-02   -0.38393E-02    60   0.111E+00    0.255E-01
RMM:   3    -0.102894477217E+03   -0.46589E-03   -0.70944E-03    61   0.485E-01    0.914E-02
RMM:   4    -0.102894683006E+03   -0.20579E-03   -0.16762E-03    63   0.228E-01    0.433E-02
RMM:   5    -0.102894730253E+03   -0.47247E-04   -0.37648E-04    65   0.107E-01    0.235E-02
RMM:   6    -0.102894753899E+03   -0.23646E-04   -0.74712E-05    54   0.505E-02    0.107E-02
RMM:   7    -0.102894772747E+03   -0.18848E-04   -0.14068E-05    40   0.212E-02    0.496E-03
RMM:   8    -0.102894793450E+03   -0.20703E-04   -0.55925E-06    39   0.129E-02    0.207E-03
RMM:   9    -0.102894801954E+03   -0.85040E-05   -0.16376E-06    37   0.699E-03
  11 F= -.10309384E+03 E0= -.10309384E+03  d E =0.291539E-01
 BRION: g(F)=  0.509E-01 g(S)=  0.000E+00 retain N=  3 mean eig= 5.48
 eig:   7.382  7.382  1.676
 bond charge predicted
       N       E                     dE             d eps       ncg     rms          rms(c)
DAV:   1    -0.102882359976E+03    0.12433E-01   -0.48370E+00    60   0.130E+01    0.600E-01
RMM:   2    -0.102886372925E+03   -0.40129E-02   -0.66222E-02    60   0.145E+00    0.322E-01
RMM:   3    -0.102887137478E+03   -0.76455E-03   -0.12266E-02    60   0.639E-01    0.148E-01
RMM:   4    -0.102887536332E+03   -0.39885E-03   -0.31954E-03    64   0.305E-01    0.771E-02
RMM:   5    -0.102887597879E+03   -0.61547E-04   -0.56381E-04    62   0.142E-01    0.320E-02
RMM:   6    -0.102887630587E+03   -0.32708E-04   -0.16252E-04    62   0.731E-02    0.155E-02
RMM:   7    -0.102887642307E+03   -0.11721E-04   -0.27447E-05    43   0.292E-02    0.120E-02
RMM:   8    -0.102887671575E+03   -0.29268E-04   -0.15585E-05    40   0.201E-02    0.120E-02
RMM:   9    -0.102887668793E+03    0.27820E-05   -0.35653E-06    39   0.108E-02
  12 F= -.10308636E+03 E0= -.10308636E+03  d E =0.747834E-02
 BRION: g(F)=  0.418E-01 g(S)=  0.000E+00 retain N=  2 mean eig= 5.01
 eig:   5.010  5.010
 bond charge predicted
       N       E                     dE             d eps       ncg     rms          rms(c)
DAV:   1    -0.102898392639E+03   -0.10721E-01   -0.14139E+00    60   0.711E+00    0.343E-01
RMM:   2    -0.102899356479E+03   -0.96384E-03   -0.19175E-02    60   0.803E-01    0.184E-01
RMM:   3    -0.102899572929E+03   -0.21645E-03   -0.34176E-03    60   0.346E-01    0.785E-02
RMM:   4    -0.102899687801E+03   -0.11487E-03   -0.90580E-04    64   0.166E-01    0.353E-02
RMM:   5    -0.102899711857E+03   -0.24055E-04   -0.16738E-04    62   0.768E-02    0.839E-03
RMM:   6    -0.102899721715E+03   -0.98588E-05   -0.44367E-05    46   0.379E-02
  13 F= -.10309826E+03 E0= -.10309826E+03  d E =-.119015E-01
 BRION: g(F)=  0.391E-01 g(S)=  0.000E+00 retain N=  3 mean eig= 4.95
 eig:   6.647  6.647  1.549
 bond charge predicted
       N       E                     dE             d eps       ncg     rms          rms(c)
DAV:   1    -0.102901002897E+03   -0.12910E-02   -0.20942E+00    60   0.858E+00    0.388E-01
RMM:   2    -0.102902613673E+03   -0.16108E-02   -0.28886E-02    60   0.962E-01    0.213E-01
RMM:   3    -0.102902976332E+03   -0.36266E-03   -0.53634E-03    60   0.425E-01    0.994E-02
RMM:   4    -0.102903161580E+03   -0.18525E-03   -0.13552E-03    64   0.201E-01    0.493E-02
RMM:   5    -0.102903194971E+03   -0.33391E-04   -0.24408E-04    62   0.933E-02    0.209E-02
RMM:   6    -0.102903215852E+03   -0.20882E-04   -0.68456E-05    54   0.479E-02    0.994E-03
RMM:   7    -0.102903225269E+03   -0.94162E-05   -0.11697E-05    40   0.194E-02
  14 F= -.10310152E+03 E0= -.10310152E+03  d E =-.325747E-02
 BRION: g(F)=  0.314E-01 g(S)=  0.000E+00 retain N=  2 mean eig= 3.20
 eig:   3.200  3.200
 bond charge predicted
       N       E                     dE             d eps       ncg     rms          rms(c)
DAV:   1    -0.102930075200E+03   -0.26859E-01   -0.97006E-01    60   0.590E+00    0.276E-01
RMM:   2    -0.102930757576E+03   -0.68238E-03   -0.13257E-02    60   0.668E-01    0.148E-01
RMM:   3    -0.102930952664E+03   -0.19509E-03   -0.24879E-03    60   0.294E-01    0.660E-02
RMM:   4    -0.102931041558E+03   -0.88894E-04   -0.61378E-04    65   0.138E-01    0.308E-02
RMM:   5    -0.102931056864E+03   -0.15306E-04   -0.10623E-04    58   0.649E-02    0.141E-02
RMM:   6    -0.102931066219E+03   -0.93542E-05   -0.34613E-05    47   0.340E-02
  15 F= -.10312922E+03 E0= -.10312922E+03  d E =-.276981E-01
 BRION: g(F)=  0.287E-01 g(S)=  0.000E+00 retain N=  3 mean eig= 4.74
 eig:   6.391  6.391  1.425
 bond charge predicted
       N       E                     dE             d eps       ncg     rms          rms(c)
DAV:   1    -0.102952757173E+03   -0.21700E-01   -0.10891E+00    60   0.625E+00    0.293E-01
RMM:   2    -0.102953471558E+03   -0.71439E-03   -0.14567E-02    60   0.705E-01    0.158E-01
RMM:   3    -0.102953672280E+03   -0.20072E-03   -0.26888E-03    60   0.307E-01    0.722E-02
RMM:   4    -0.102953766869E+03   -0.94590E-04   -0.67304E-04    65   0.144E-01    0.314E-02
RMM:   5    -0.102953785100E+03   -0.18231E-04   -0.12688E-04    60   0.675E-02    0.142E-02
RMM:   6    -0.102953793037E+03   -0.79365E-05   -0.28271E-05    45   0.303E-02
  16 F= -.10315179E+03 E0= -.10315179E+03  d E =-.225712E-01
 BRION: g(F)=  0.260E-01 g(S)=  0.000E+00 retain N=  3 mean eig= 5.21
 eig:   6.944  6.944  1.745
 bond charge predicted
       N       E                     dE             d eps       ncg     rms          rms(c)
DAV:   1    -0.102993491014E+03   -0.39706E-01   -0.15029E+00    60   0.737E+00    0.336E-01
RMM:   2    -0.102994469868E+03   -0.97885E-03   -0.20021E-02    60   0.827E-01    0.183E-01
RMM:   3    -0.102994743354E+03   -0.27349E-03   -0.38258E-03    60   0.364E-01    0.827E-02
RMM:   4    -0.102994876728E+03   -0.13337E-03   -0.91550E-04    64   0.171E-01    0.371E-02
RMM:   5    -0.102994902059E+03   -0.25331E-04   -0.19599E-04    63   0.817E-02    0.199E-02
RMM:   6    -0.102994914381E+03   -0.12322E-04   -0.38626E-05    46   0.346E-02    0.697E-03
RMM:   7    -0.102994918136E+03   -0.37557E-05   -0.11283E-05    40   0.177E-02
  17 F= -.10319273E+03 E0= -.10319273E+03  d E =-.409463E-01
 BRION: g(F)=  0.230E-01 g(S)=  0.000E+00 retain N=  2 mean eig= 5.28
 eig:   5.279  5.279
 bond charge predicted
       N       E                     dE             d eps       ncg     rms          rms(c)
DAV:   1    -0.103031482341E+03   -0.36568E-01   -0.83503E-01    72   0.552E+00    0.261E-01
RMM:   2    -0.103031880794E+03   -0.39845E-03   -0.10326E-02    60   0.611E-01    0.141E-01
RMM:   3    -0.103032018392E+03   -0.13760E-03   -0.19671E-03    60   0.262E-01    0.594E-02
RMM:   4    -0.103032092350E+03   -0.73957E-04   -0.51728E-04    65   0.126E-01    0.246E-02
RMM:   5    -0.103032106245E+03   -0.13895E-04   -0.11208E-04    62   0.607E-02    0.907E-03
RMM:   6    -0.103032111152E+03   -0.49071E-05   -0.22145E-05    43   0.271E-02
  18 F= -.10322982E+03 E0= -.10322982E+03  d E =-.370872E-01
 BRION: g(F)=  0.219E-01 g(S)=  0.000E+00 retain N=  3 mean eig= 5.72
 eig:   7.537  7.537  2.078
 bond charge predicted
       N       E                     dE             d eps       ncg     rms          rms(c)
DAV:   1    -0.103066209587E+03   -0.34103E-01   -0.87927E-01    60   0.564E+00    0.252E-01
RMM:   2    -0.103066705680E+03   -0.49609E-03   -0.11282E-02    60   0.626E-01    0.141E-01
RMM:   3    -0.103066863932E+03   -0.15825E-03   -0.22600E-03    60   0.277E-01    0.581E-02
RMM:   4    -0.103066944288E+03   -0.80356E-04   -0.55756E-04    65   0.131E-01    0.282E-02
RMM:   5    -0.103066957537E+03   -0.13249E-04   -0.11528E-04    61   0.620E-02    0.161E-02
RMM:   6    -0.103066966950E+03   -0.94135E-05   -0.28314E-05    44   0.284E-02
  19 F= -.10326454E+03 E0= -.10326454E+03  d E =-.347246E-01
 BRION: g(F)=  0.194E-01 g(S)=  0.000E+00 retain N=  2 mean eig= 3.93
 eig:   3.931  3.931
 bond charge predicted
       N       E                     dE             d eps       ncg     rms          rms(c)
DAV:   1    -0.103108705167E+03   -0.41748E-01   -0.11497E+00    60   0.646E+00    0.289E-01
RMM:   2    -0.103109278411E+03   -0.57324E-03   -0.13774E-02    60   0.703E-01    0.163E-01
RMM:   3    -0.103109460470E+03   -0.18206E-03   -0.28141E-03    60   0.308E-01    0.633E-02
RMM:   4    -0.103109569908E+03   -0.10944E-03   -0.76504E-04    66   0.148E-01    0.319E-02
RMM:   5    -0.103109582379E+03   -0.12471E-04   -0.11441E-04    61   0.634E-02    0.126E-02
RMM:   6    -0.103109592877E+03   -0.10498E-04   -0.37475E-05    48   0.342E-02    0.523E-03
RMM:   7    -0.103109595949E+03   -0.30720E-05   -0.86591E-06    39   0.156E-02
  20 F= -.10330705E+03 E0= -.10330705E+03  d E =-.425014E-01
 BRION: g(F)=  0.179E-01 g(S)=  0.000E+00 retain N=  3 mean eig= 5.25
 eig:   7.016  7.016  1.717
 bond charge predicted
       N       E                     dE             d eps       ncg     rms          rms(c)
DAV:   1    -0.103141977802E+03   -0.32385E-01   -0.95342E-01    60   0.589E+00    0.269E-01
RMM:   2    -0.103142426769E+03   -0.44897E-03   -0.11375E-02    60   0.643E-01    0.150E-01
RMM:   3    -0.103142563900E+03   -0.13713E-03   -0.23109E-03    60   0.280E-01    0.571E-02
RMM:   4    -0.103142655082E+03   -0.91182E-04   -0.64319E-04    66   0.136E-01    0.281E-02
RMM:   5    -0.103142666121E+03   -0.11039E-04   -0.10222E-04    61   0.588E-02    0.826E-03
RMM:   6    -0.103142672919E+03   -0.67982E-05   -0.27936E-05    44   0.301E-02
  21 F= -.10334000E+03 E0= -.10334000E+03  d E =-.329490E-01
 BRION: g(F)=  0.158E-01 g(S)=  0.000E+00 retain N=  3 mean eig= 5.91
 eig:   7.979  7.979  1.775
 bond charge predicted
       N       E                     dE             d eps       ncg     rms          rms(c)
DAV:   1    -0.103180442570E+03   -0.37776E-01   -0.13267E+00    60   0.693E+00    0.306E-01
RMM:   2    -0.103181071326E+03   -0.62876E-03   -0.15473E-02    60   0.749E-01    0.176E-01
RMM:   3    -0.103181249293E+03   -0.17797E-03   -0.33915E-03    60   0.334E-01    0.613E-02
RMM:   4    -0.103181374318E+03   -0.12503E-03   -0.92647E-04    66   0.161E-01    0.342E-02
RMM:   5    -0.103181387004E+03   -0.12686E-04   -0.14822E-04    63   0.687E-02    0.171E-02
RMM:   6    -0.103181400160E+03   -0.13156E-04   -0.47123E-05    56   0.349E-02    0.654E-03
RMM:   7    -0.103181401733E+03   -0.15733E-05   -0.12467E-05    39   0.187E-02
  22 F= -.10337859E+03 E0= -.10337859E+03  d E =-.385904E-01
 BRION: g(F)=  0.140E-01 g(S)=  0.000E+00 retain N=  2 mean eig= 6.62
 eig:   6.620  6.620
 bond charge predicted
       N       E                     dE             d eps       ncg     rms          rms(c)
DAV:   1    -0.103212844338E+03   -0.31444E-01   -0.10185E+00    60   0.607E+00    0.271E-01
RMM:   2    -0.103213276854E+03   -0.43252E-03   -0.11437E-02    60   0.654E-01    0.155E-01
RMM:   3    -0.103213393206E+03   -0.11635E-03   -0.25123E-03    60   0.287E-01    0.513E-02
RMM:   4    -0.103213495194E+03   -0.10199E-03   -0.76781E-04    67   0.142E-01    0.281E-02
RMM:   5    -0.103213501034E+03   -0.58396E-05   -0.10219E-04    60   0.600E-02    0.102E-02
RMM:   6    -0.103213510523E+03   -0.94898E-05   -0.37550E-05    46   0.333E-02
  23 F= -.10341060E+03 E0= -.10341060E+03  d E =-.320149E-01
 BRION: g(F)=  0.130E-01 g(S)=  0.000E+00 retain N=  1 mean eig= 4.17
 eig:   4.170
 bond charge predicted
       N       E                     dE             d eps       ncg     rms          rms(c)
DAV:   1    -0.103216820464E+03   -0.33194E-02   -0.32894E-02    72   0.110E+00    0.540E-02
RMM:   2    -0.103216834434E+03   -0.13970E-04   -0.46428E-04    60   0.125E-01    0.309E-02
RMM:   3    -0.103216839063E+03   -0.46284E-05   -0.83774E-05    53   0.540E-02
  24 F= -.10341396E+03 E0= -.10341396E+03  d E =-.335896E-02
 BRION: g(F)=  0.122E-01 g(S)=  0.000E+00 retain N=  1 mean eig= 0.58
 eig:   0.580
 bond charge predicted
       N       E                     dE             d eps       ncg     rms          rms(c)
DAV:   1    -0.103224184529E+03   -0.73501E-02   -0.46765E-02    60   0.130E+00    0.564E-02
RMM:   2    -0.103224204714E+03   -0.20185E-04   -0.57861E-04    60   0.146E-01    0.339E-02
RMM:   3    -0.103224213944E+03   -0.92303E-05   -0.13338E-04    61   0.656E-02    0.107E-02
RMM:   4    -0.103224220429E+03   -0.64849E-05   -0.36326E-05    48   0.330E-02
  25 F= -.10342135E+03 E0= -.10342135E+03  d E =-.739184E-02
 BRION: g(F)=  0.113E-01 g(S)=  0.000E+00 retain N=  1 mean eig= 0.80
 eig:   0.795
 bond charge predicted
       N       E                     dE             d eps       ncg     rms          rms(c)
DAV:   1    -0.103232466281E+03   -0.82523E-02   -0.65638E-02    60   0.153E+00    0.615E-02
RMM:   2    -0.103232500655E+03   -0.34374E-04   -0.75871E-04    60   0.164E-01    0.379E-02
RMM:   3    -0.103232515178E+03   -0.14523E-04   -0.17674E-04    61   0.746E-02    0.100E-02
RMM:   4    -0.103232521285E+03   -0.61073E-05   -0.43622E-05    49   0.352E-02
  26 F= -.10342967E+03 E0= -.10342967E+03  d E =-.831535E-02
 BRION: g(F)=  0.106E-01 g(S)=  0.000E+00 retain N=  2 mean eig= 3.34
 eig:   3.341  3.341
 bond charge predicted
       N       E                     dE             d eps       ncg     rms          rms(c)
DAV:   1    -0.103302823761E+03   -0.70309E-01   -0.13467E+01    60   0.219E+01    0.898E-01
RMM:   2    -0.103311476663E+03   -0.86529E-02   -0.15073E-01    60   0.233E+00    0.532E-01
RMM:   3    -0.103313004752E+03   -0.15281E-02   -0.34930E-02    61   0.105E+00    0.159E-01
RMM:   4    -0.103314043349E+03   -0.10386E-02   -0.90867E-03    68   0.498E-01    0.101E-01
RMM:   5    -0.103314067433E+03   -0.24083E-04   -0.12918E-03    64   0.193E-01    0.526E-02
RMM:   6    -0.103314147898E+03   -0.80466E-04   -0.37002E-04    64   0.998E-02    0.166E-02
RMM:   7    -0.103314178609E+03   -0.30710E-04   -0.76642E-05    60   0.489E-02    0.137E-02
RMM:   8    -0.103314244573E+03   -0.65965E-04   -0.35921E-05    50   0.296E-02    0.636E-03
RMM:   9    -0.103314249409E+03   -0.48361E-05   -0.68750E-06    39   0.137E-02
  27 F= -.10351155E+03 E0= -.10351155E+03  d E =-.818864E-01
 BRION: g(F)=  0.592E-02 g(S)=  0.000E+00
 BRIONS problems: POTIM should be increased
 retain N=  1 mean eig=13.73
 eig:  13.731
 bond charge predicted
       N       E                     dE             d eps       ncg     rms          rms(c)
DAV:   1    -0.103309342018E+03    0.49026E-02   -0.15797E-01    66   0.241E+00    0.106E-01
RMM:   2    -0.103309421435E+03   -0.79418E-04   -0.19570E-03    60   0.270E-01    0.642E-02
RMM:   3    -0.103309456853E+03   -0.35418E-04   -0.43073E-04    61   0.119E-01    0.216E-02
RMM:   4    -0.103309485115E+03   -0.28262E-04   -0.12746E-04    62   0.612E-02    0.929E-03
RMM:   5    -0.103309492006E+03   -0.68905E-05   -0.19153E-05    39   0.251E-02
  28 F= -.10350679E+03 E0= -.10350679E+03  d E =0.476348E-02
 BRION: g(F)=  0.654E-02 g(S)=  0.000E+00 retain N=  1 mean eig= 0.57
 eig:   0.567
 bond charge predicted
       N       E                     dE             d eps       ncg     rms          rms(c)
DAV:   1    -0.103313983833E+03   -0.44987E-02   -0.10425E-01    72   0.192E+00    0.741E-02
RMM:   2    -0.103314041202E+03   -0.57369E-04   -0.11608E-03    60   0.200E-01    0.458E-02
RMM:   3    -0.103314062896E+03   -0.21694E-04   -0.25211E-04    61   0.890E-02    0.127E-02
RMM:   4    -0.103314071007E+03   -0.81112E-05   -0.62118E-05    55   0.422E-02
  29 F= -.10351139E+03 E0= -.10351139E+03  d E =-.459750E-02
 BRION: g(F)=  0.384E-02 g(S)=  0.000E+00 retain N=  1 mean eig= 0.76
 eig:   0.761
 bond charge predicted
       N       E                     dE             d eps       ncg     rms          rms(c)
DAV:   1    -0.103316299174E+03   -0.22363E-02   -0.32845E-02    60   0.105E+00    0.400E-02
RMM:   2    -0.103316320741E+03   -0.21567E-04   -0.38936E-04    60   0.110E-01    0.239E-02
RMM:   3    -0.103316328432E+03   -0.76908E-05   -0.77932E-05    53   0.490E-02
  30 F= -.10351366E+03 E0= -.10351366E+03  d E =-.227266E-02
 BRION: g(F)=  0.366E-02 g(S)=  0.000E+00 retain N=  2 mean eig= 2.22
 eig:   0.950  3.485
 bond charge predicted
       N       E                     dE             d eps       ncg     rms          rms(c)
DAV:   1    -0.103321054100E+03   -0.47334E-02   -0.17920E-01    60   0.245E+00    0.913E-02
RMM:   2    -0.103321176468E+03   -0.12237E-03   -0.21195E-03    60   0.255E-01    0.548E-02
RMM:   3    -0.103321217173E+03   -0.40705E-04   -0.41003E-04    61   0.113E-01    0.190E-02
RMM:   4    -0.103321229687E+03   -0.12515E-04   -0.10388E-04    58   0.531E-02    0.922E-03
RMM:   5    -0.103321233038E+03   -0.33508E-05   -0.13388E-05    41   0.201E-02
  31 F= -.10351860E+03 E0= -.10351860E+03  d E =-.494029E-02
 BRION: g(F)=  0.362E-02 g(S)=  0.000E+00 retain N=  3 mean eig= 3.73
 eig:   0.911  5.134  5.134
 bond charge predicted
       N       E                     dE             d eps       ncg     rms          rms(c)
DAV:   1    -0.103333260173E+03   -0.12030E-01   -0.22799E+00    60   0.875E+00    0.322E-01
RMM:   2    -0.103334848458E+03   -0.15883E-02   -0.25919E-02    60   0.893E-01    0.192E-01
RMM:   3    -0.103335249178E+03   -0.40072E-03   -0.49838E-03    61   0.393E-01    0.642E-02
RMM:   4    -0.103335403380E+03   -0.15420E-03   -0.12623E-03    68   0.185E-01    0.304E-02
RMM:   5    -0.103335427041E+03   -0.23661E-04   -0.17161E-04    63   0.687E-02    0.114E-02
RMM:   6    -0.103335441931E+03   -0.14890E-04   -0.27635E-05    43   0.325E-02    0.593E-03
RMM:   7    -0.103335456210E+03   -0.14279E-04   -0.65425E-06    39   0.150E-02    0.364E-03
RMM:   8    -0.103335481068E+03   -0.24858E-04   -0.41176E-06    39   0.973E-03    0.178E-03
RMM:   9    -0.103335484927E+03   -0.38594E-05   -0.87220E-07    32   0.529E-03
  32 F= -.10353296E+03 E0= -.10353296E+03  d E =-.143585E-01
 BRION: g(F)=  0.280E-02 g(S)=  0.000E+00
 BRIONS problems: POTIM should be increased
 retain N=  1 mean eig=11.53
 eig:  11.535
 bond charge predicted
       N       E                     dE             d eps       ncg     rms          rms(c)
DAV:   1    -0.103336462444E+03   -0.98138E-03   -0.21224E-02    66   0.817E-01    0.341E-02
RMM:   2    -0.103336480632E+03   -0.18189E-04   -0.33523E-04    60   0.936E-02    0.207E-02
RMM:   3    -0.103336485318E+03   -0.46854E-05   -0.56698E-05    48   0.405E-02
  33 F= -.10353397E+03 E0= -.10353397E+03  d E =-.101591E-02
 BRION: g(F)=  0.290E-02 g(S)=  0.000E+00 retain N=  1 mean eig= 0.47
 eig:   0.465
 bond charge predicted
       N       E                     dE             d eps       ncg     rms          rms(c)
DAV:   1    -0.103336608444E+03   -0.12781E-03   -0.13295E-03    88   0.205E-01    0.162E-02
RMM:   2    -0.103336605440E+03    0.30042E-05   -0.31244E-05    44   0.278E-02
  34 F= -.10353409E+03 E0= -.10353409E+03  d E =-.118384E-03
 BRION: g(F)=  0.261E-02 g(S)=  0.000E+00 retain N=  1 mean eig= 0.48
 eig:   0.484
 bond charge predicted
       N       E                     dE             d eps       ncg     rms          rms(c)
DAV:   1    -0.103337210539E+03   -0.60209E-03   -0.81146E-03    60   0.508E-01    0.229E-02
RMM:   2    -0.103337216433E+03   -0.58945E-05   -0.10577E-04    51   0.538E-02    0.130E-02
RMM:   3    -0.103337219459E+03   -0.30257E-05   -0.17259E-05    41   0.230E-02
  35 F= -.10353471E+03 E0= -.10353471E+03  d E =-.621127E-03
 BRION: g(F)=  0.255E-02 g(S)=  0.000E+00 retain N=  2 mean eig= 1.89
 eig:   0.319  3.464
 bond charge predicted
       N       E                     dE             d eps       ncg     rms          rms(c)
DAV:   1    -0.103341181732E+03   -0.39653E-02   -0.49923E-01    60   0.395E+00    0.157E-01
RMM:   2    -0.103341573240E+03   -0.39151E-03   -0.64128E-03    60   0.419E-01    0.896E-02
RMM:   3    -0.103341688393E+03   -0.11515E-03   -0.11098E-03    62   0.181E-01    0.372E-02
RMM:   4    -0.103341721855E+03   -0.33462E-04   -0.23364E-04    61   0.824E-02    0.142E-02
RMM:   5    -0.103341728770E+03   -0.69155E-05   -0.50555E-05    48   0.379E-02
  36 F= -.10353928E+03 E0= -.10353928E+03  d E =-.456327E-02
 BRION: g(F)=  0.271E-02 g(S)=  0.000E+00 retain N=  3 mean eig= 4.79
 eig:   0.437  6.959  6.959
 bond charge predicted
       N       E                     dE             d eps       ncg     rms          rms(c)
DAV:   1    -0.103344179820E+03   -0.24580E-02   -0.22591E-01    60   0.266E+00    0.105E-01
RMM:   2    -0.103344351227E+03   -0.17141E-03   -0.29202E-03    60   0.283E-01    0.599E-02
RMM:   3    -0.103344404582E+03   -0.53356E-04   -0.50694E-04    62   0.123E-01    0.254E-02
RMM:   4    -0.103344422218E+03   -0.17636E-04   -0.10634E-04    54   0.562E-02    0.981E-03
RMM:   5    -0.103344429050E+03   -0.68320E-05   -0.21633E-05    42   0.255E-02
  37 F= -.10354201E+03 E0= -.10354201E+03  d E =-.273530E-02
 BRION: g(F)=  0.253E-02 g(S)=  0.000E+00 retain N=  2 mean eig= 4.13
 eig:   4.130  4.130
 bond charge predicted
       N       E                     dE             d eps       ncg     rms          rms(c)
DAV:   1    -0.103342538186E+03    0.18840E-02   -0.98833E-02    60   0.177E+00    0.734E-02
RMM:   2    -0.103342622860E+03   -0.84674E-04   -0.12937E-03    60   0.187E-01    0.401E-02
RMM:   3    -0.103342654177E+03   -0.31317E-04   -0.21103E-04    60   0.804E-02    0.178E-02
RMM:   4    -0.103342667041E+03   -0.12864E-04   -0.53471E-05    48   0.377E-02    0.818E-03
RMM:   5    -0.103342670476E+03   -0.34345E-05   -0.74932E-06    39   0.150E-02
  38 F= -.10354023E+03 E0= -.10354023E+03  d E =0.178292E-02
 BRION: g(F)=  0.249E-02 g(S)=  0.000E+00 retain N=  2 mean eig= 2.94
 eig:   2.939  2.939
 bond charge predicted
       N       E                     dE             d eps       ncg     rms          rms(c)
DAV:   1    -0.103344622632E+03   -0.19556E-02   -0.14327E-01    60   0.211E+00    0.847E-02
RMM:   2    -0.103344734596E+03   -0.11196E-03   -0.18318E-03    60   0.222E-01    0.474E-02
RMM:   3    -0.103344770303E+03   -0.35707E-04   -0.31155E-04    62   0.956E-02    0.201E-02
RMM:   4    -0.103344779718E+03   -0.94151E-05   -0.65272E-05    49   0.432E-02
  39 F= -.10354237E+03 E0= -.10354237E+03  d E =-.213763E-02
 BRION: g(F)=  0.232E-02 g(S)=  0.000E+00
 BRIONS problems: POTIM should be increased
 retain N=  1 mean eig= 8.88
 eig:   8.881
 bond charge predicted
       N       E                     dE             d eps       ncg     rms          rms(c)
DAV:   1    -0.103346982136E+03   -0.22118E-02   -0.22822E-01    60   0.265E+00    0.104E-01
RMM:   2    -0.103347161275E+03   -0.17914E-03   -0.29373E-03    60   0.282E-01    0.596E-02
RMM:   3    -0.103347211917E+03   -0.50642E-04   -0.50450E-04    62   0.122E-01    0.252E-02
RMM:   4    -0.103347227508E+03   -0.15591E-04   -0.10679E-04    53   0.551E-02    0.935E-03
RMM:   5    -0.103347231606E+03   -0.40982E-05   -0.21662E-05    43   0.247E-02
  40 F= -.10354485E+03 E0= -.10354485E+03  d E =-.248598E-02
 BRION: g(F)=  0.235E-02 g(S)=  0.000E+00 retain N=  1 mean eig= 5.42
 eig:   5.424
 bond charge predicted
       N       E                     dE             d eps       ncg     rms          rms(c)
DAV:   1    -0.103345838980E+03    0.13885E-02   -0.66263E-02    60   0.144E+00    0.593E-02
RMM:   2    -0.103345894616E+03   -0.55636E-04   -0.84450E-04    60   0.152E-01    0.327E-02
RMM:   3    -0.103345915874E+03   -0.21258E-04   -0.14004E-04    57   0.646E-02    0.140E-02
RMM:   4    -0.103345924372E+03   -0.84972E-05   -0.29931E-05    44   0.285E-02
  41 F= -.10354353E+03 E0= -.10354353E+03  d E =0.132366E-02
 BRION: g(F)=  0.238E-02 g(S)=  0.000E+00 retain N=  1 mean eig= 2.33
 eig:   2.328
 bond charge predicted
       N       E                     dE             d eps       ncg     rms          rms(c)
DAV:   1    -0.103347084002E+03   -0.11681E-02   -0.58744E-02    60   0.134E+00    0.541E-02
RMM:   2    -0.103347129739E+03   -0.45737E-04   -0.74142E-04    60   0.141E-01    0.299E-02
RMM:   3    -0.103347144826E+03   -0.15087E-04   -0.12500E-04    56   0.605E-02    0.124E-02
RMM:   4    -0.103347149301E+03   -0.44754E-05   -0.26076E-05    44   0.267E-02
  42 F= -.10354477E+03 E0= -.10354477E+03  d E =-.124277E-02
 BRION: g(F)=  0.229E-02 g(S)=  0.000E+00 retain N=  2 mean eig= 6.13
 eig:   6.128  6.128
 bond charge predicted
       N       E                     dE             d eps       ncg     rms          rms(c)
DAV:   1    -0.103349317064E+03   -0.21722E-02   -0.27437E-01    60   0.288E+00    0.113E-01
RMM:   2    -0.103349529427E+03   -0.21236E-03   -0.35180E-03    60   0.307E-01    0.644E-02
RMM:   3    -0.103349589650E+03   -0.60223E-04   -0.59896E-04    62   0.132E-01    0.271E-02
RMM:   4    -0.103349608414E+03   -0.18764E-04   -0.12707E-04    54   0.599E-02    0.101E-02
RMM:   5    -0.103349612129E+03   -0.37158E-05   -0.26077E-05    44   0.270E-02
  43 F= -.10354727E+03 E0= -.10354727E+03  d E =-.250225E-02
 BRION: g(F)=  0.227E-02 g(S)=  0.000E+00 retain N=  1 mean eig= 5.27
 eig:   5.268
 bond charge predicted
       N       E                     dE             d eps       ncg     rms          rms(c)
DAV:   1    -0.103349015535E+03    0.59288E-03   -0.16305E-02    60   0.712E-01    0.301E-02
RMM:   2    -0.103349030687E+03   -0.15152E-04   -0.21230E-04    58   0.756E-02    0.164E-02
RMM:   3    -0.103349037956E+03   -0.72690E-05   -0.32842E-05    45   0.319E-02
  44 F= -.10354669E+03 E0= -.10354669E+03  d E =0.583758E-03
 BRION: g(F)=  0.229E-02 g(S)=  0.000E+00 retain N=  1 mean eig= 1.20
 eig:   1.204
 bond charge predicted
       N       E                     dE             d eps       ncg     rms          rms(c)
DAV:   1    -0.103349717009E+03   -0.68632E-03   -0.24115E-02    60   0.845E-01    0.338E-02
RMM:   2    -0.103349735053E+03   -0.18044E-04   -0.29745E-04    59   0.881E-02    0.182E-02
RMM:   3    -0.103349741429E+03   -0.63757E-05   -0.47866E-05    48   0.374E-02
  45 F= -.10354741E+03 E0= -.10354741E+03  d E =-.716376E-03
 BRION: g(F)=  0.218E-02 g(S)=  0.000E+00 retain N=  2 mean eig= 4.56
 eig:   1.892  7.231
 bond charge predicted
       N       E                     dE             d eps       ncg     rms          rms(c)
DAV:   1    -0.103351459778E+03   -0.17247E-02   -0.20572E-01    60   0.246E+00    0.953E-02
RMM:   2    -0.103351616564E+03   -0.15679E-03   -0.26741E-03    60   0.266E-01    0.554E-02
RMM:   3    -0.103351665674E+03   -0.49110E-04   -0.45598E-04    62   0.115E-01    0.232E-02
RMM:   4    -0.103351680249E+03   -0.14575E-04   -0.10045E-04    51   0.525E-02    0.849E-03
RMM:   5    -0.103351683611E+03   -0.33622E-05   -0.19375E-05    42   0.235E-02
  46 F= -.10354939E+03 E0= -.10354939E+03  d E =-.197800E-02
 BRION: g(F)=  0.224E-02 g(S)=  0.000E+00 retain N=  3 mean eig= 5.86
 eig:   1.639  7.973  7.973
 bond charge predicted
       N       E                     dE             d eps       ncg     rms          rms(c)
DAV:   1    -0.103353852531E+03   -0.21723E-02   -0.49340E-01    60   0.379E+00    0.145E-01
RMM:   2    -0.103354239187E+03   -0.38666E-03   -0.63200E-03    60   0.407E-01    0.838E-02
RMM:   3    -0.103354339382E+03   -0.10020E-03   -0.10661E-03    62   0.176E-01    0.341E-02
RMM:   4    -0.103354372767E+03   -0.33384E-04   -0.23178E-04    60   0.800E-02    0.129E-02
RMM:   5    -0.103354381828E+03   -0.90614E-05   -0.47366E-05    47   0.365E-02
  47 F= -.10355214E+03 E0= -.10355214E+03  d E =-.275712E-02
 BRION: g(F)=  0.205E-02 g(S)=  0.000E+00 retain N=  2 mean eig= 6.76
 eig:   6.757  6.757
 bond charge predicted
       N       E                     dE             d eps       ncg     rms          rms(c)
DAV:   1    -0.103354221855E+03    0.15091E-03   -0.23229E-03    88   0.277E-01    0.128E-02
RMM:   2    -0.103354226663E+03   -0.48079E-05   -0.22332E-05    41   0.257E-02
  48 F= -.10355199E+03 E0= -.10355199E+03  d E =0.155103E-03
 BRION: g(F)=  0.204E-02 g(S)=  0.000E+00 retain N=  2 mean eig= 4.64
 eig:   7.331  1.948
 bond charge predicted
       N       E                     dE             d eps       ncg     rms          rms(c)
DAV:   1    -0.103354898561E+03   -0.67671E-03   -0.39992E-02    60   0.107E+00    0.406E-02
RMM:   2    -0.103354930026E+03   -0.31465E-04   -0.50652E-04    60   0.115E-01    0.227E-02
RMM:   3    -0.103354940558E+03   -0.10532E-04   -0.85857E-05    51   0.491E-02    0.974E-03
RMM:   4    -0.103354945378E+03   -0.48196E-05   -0.18759E-05    42   0.216E-02
  49 F= -.10355272E+03 E0= -.10355272E+03  d E =-.737804E-03
 BRION: g(F)=  0.197E-02 g(S)=  0.000E+00 retain N=  1 mean eig= 7.11
 eig:   7.111
 bond charge predicted
       N       E                     dE             d eps       ncg     rms          rms(c)
DAV:   1    -0.103355926302E+03   -0.98574E-03   -0.10691E-01    60   0.174E+00    0.663E-02
RMM:   2    -0.103356007318E+03   -0.81016E-04   -0.13851E-03    60   0.189E-01    0.385E-02
RMM:   3    -0.103356032828E+03   -0.25510E-04   -0.23756E-04    61   0.818E-02    0.158E-02
RMM:   4    -0.103356041121E+03   -0.82934E-05   -0.53985E-05    47   0.370E-02
  50 F= -.10355386E+03 E0= -.10355386E+03  d E =-.113165E-02
 BRION: g(F)=  0.194E-02 g(S)=  0.000E+00 retain N=  1 mean eig= 4.09
 eig:   4.090
 bond charge predicted
       N       E                     dE             d eps       ncg     rms          rms(c)
DAV:   1    -0.103355984607E+03    0.48221E-04   -0.62171E-04    88   0.143E-01    0.741E-03
RMM:   2    -0.103355986204E+03   -0.15974E-05   -0.89339E-06    39   0.157E-02
  51 F= -.10355380E+03 E0= -.10355380E+03  d E =0.557297E-04
 BRION: g(F)=  0.192E-02 g(S)=  0.000E+00 retain N=  1 mean eig= 0.49
 eig:   0.488
 bond charge predicted
       N       E                     dE             d eps       ncg     rms          rms(c)
DAV:   1    -0.103356264761E+03   -0.28015E-03   -0.80762E-03    60   0.475E-01    0.177E-02
RMM:   2    -0.103356271779E+03   -0.70178E-05   -0.10406E-04    48   0.517E-02    0.102E-02
RMM:   3    -0.103356274485E+03   -0.27063E-05   -0.16859E-05    41   0.219E-02
  52 F= -.10355410E+03 E0= -.10355410E+03  d E =-.299892E-03
 BRION: g(F)=  0.185E-02 g(S)=  0.000E+00 retain N=  2 mean eig= 1.58
 eig:   0.976  2.183
 bond charge predicted
       N       E                     dE             d eps       ncg     rms          rms(c)
DAV:   1    -0.103357898377E+03   -0.16266E-02   -0.73379E-01    60   0.454E+00    0.170E-01
RMM:   2    -0.103358464232E+03   -0.56585E-03   -0.93521E-03    60   0.493E-01    0.101E-01
RMM:   3    -0.103358615177E+03   -0.15095E-03   -0.16179E-03    62   0.214E-01    0.381E-02
RMM:   4    -0.103358664337E+03   -0.49160E-04   -0.37509E-04    63   0.975E-02    0.161E-02
RMM:   5    -0.103358674085E+03   -0.97482E-05   -0.62883E-05    49   0.387E-02
  53 F= -.10355662E+03 E0= -.10355662E+03  d E =-.251934E-02
 BRION: g(F)=  0.165E-02 g(S)=  0.000E+00
 BRIONS problems: POTIM should be increased
 retain N=  1 mean eig= 9.82
 eig:   9.819
 bond charge predicted
       N       E                     dE             d eps       ncg     rms          rms(c)
DAV:   1    -0.103358718900E+03   -0.54563E-04   -0.30412E-04    74   0.101E-01    0.611E-03
RMM:   2    -0.103358721744E+03   -0.28449E-05   -0.51078E-06    40   0.127E-02
  54 F= -.10355667E+03 E0= -.10355667E+03  d E =-.506306E-04
 BRION: g(F)=  0.166E-02 g(S)=  0.000E+00 retain N=  1 mean eig= 0.47
 eig:   0.468
 bond charge predicted
       N       E                     dE             d eps       ncg     rms          rms(c)
DAV:   1    -0.103358902604E+03   -0.18370E-03   -0.52034E-03    66   0.383E-01    0.149E-02
RMM:   2    -0.103358908099E+03   -0.54951E-05   -0.68116E-05    48   0.419E-02
  55 F= -.10355687E+03 E0= -.10355687E+03  d E =-.197618E-03
 BRION: g(F)=  0.153E-02 g(S)=  0.000E+00 retain N=  1 mean eig= 0.72
 eig:   0.725
 bond charge predicted
       N       E                     dE             d eps       ncg     rms          rms(c)
DAV:   1    -0.103359141819E+03   -0.23922E-03   -0.91641E-03    60   0.512E-01    0.214E-02
RMM:   2    -0.103359148606E+03   -0.67870E-05   -0.12648E-04    50   0.569E-02    0.133E-02
RMM:   3    -0.103359153108E+03   -0.45026E-05   -0.21296E-05    44   0.248E-02
  56 F= -.10355713E+03 E0= -.10355713E+03  d E =-.260548E-03
 BRION: g(F)=  0.150E-02 g(S)=  0.000E+00 retain N=  2 mean eig= 2.54
 eig:   1.691  3.392
 bond charge predicted
       N       E                     dE             d eps       ncg     rms          rms(c)
DAV:   1    -0.103360053997E+03   -0.90539E-03   -0.27682E-01    60   0.279E+00    0.106E-01
RMM:   2    -0.103360270408E+03   -0.21641E-03   -0.35990E-03    60   0.305E-01    0.627E-02
RMM:   3    -0.103360332195E+03   -0.61787E-04   -0.61297E-04    62   0.132E-01    0.246E-02
RMM:   4    -0.103360351360E+03   -0.19165E-04   -0.13587E-04    55   0.603E-02    0.917E-03
RMM:   5    -0.103360357104E+03   -0.57435E-05   -0.27474E-05    44   0.271E-02
  57 F= -.10355842E+03 E0= -.10355842E+03  d E =-.128749E-02
 BRION: g(F)=  0.139E-02 g(S)=  0.000E+00 retain N=  2 mean eig= 6.20
 eig:   6.200  6.200
 bond charge predicted
       N       E                     dE             d eps       ncg     rms          rms(c)
DAV:   1    -0.103360894243E+03   -0.54288E-03   -0.97684E-02    60   0.166E+00    0.628E-02
RMM:   2    -0.103360968372E+03   -0.74130E-04   -0.12733E-03    60   0.182E-01    0.371E-02
RMM:   3    -0.103360990361E+03   -0.21989E-04   -0.21796E-04    61   0.790E-02    0.143E-02
RMM:   4    -0.103360998647E+03   -0.82858E-05   -0.48113E-05    48   0.361E-02
  58 F= -.10355911E+03 E0= -.10355911E+03  d E =-.694485E-03
 BRION: g(F)=  0.135E-02 g(S)=  0.000E+00 retain N=  2 mean eig= 4.58
 eig:   5.751  3.409
 bond charge predicted
       N       E                     dE             d eps       ncg     rms          rms(c)
DAV:   1    -0.103361275714E+03   -0.28535E-03   -0.22679E-02    60   0.802E-01    0.306E-02
RMM:   2    -0.103361292681E+03   -0.16967E-04   -0.29776E-04    59   0.879E-02    0.183E-02
RMM:   3    -0.103361298735E+03   -0.60548E-05   -0.48402E-05    47   0.381E-02
  59 F= -.10355943E+03 E0= -.10355943E+03  d E =-.324069E-03
 BRION: g(F)=  0.132E-02 g(S)=  0.000E+00 retain N=  3 mean eig= 4.52
 eig:   6.200  6.200  1.169
 bond charge predicted
       N       E                     dE             d eps       ncg     rms          rms(c)
DAV:   1    -0.103361649870E+03   -0.35719E-03   -0.47430E-02    60   0.116E+00    0.444E-02
RMM:   2    -0.103361688053E+03   -0.38183E-04   -0.64058E-04    60   0.129E-01    0.266E-02
RMM:   3    -0.103361700771E+03   -0.12718E-04   -0.11079E-04    51   0.561E-02    0.106E-02
RMM:   4    -0.103361705617E+03   -0.48462E-05   -0.24155E-05    44   0.249E-02
  60 F= -.10355988E+03 E0= -.10355988E+03  d E =-.442972E-03
 BRION: g(F)=  0.127E-02 g(S)=  0.000E+00 retain N=  3 mean eig= 4.10
 eig:   5.568  5.568  1.173
 bond charge predicted
       N       E                     dE             d eps       ncg     rms          rms(c)
DAV:   1    -0.103361836873E+03   -0.13610E-03   -0.52666E-03    60   0.385E-01    0.148E-02
RMM:   2    -0.103361841786E+03   -0.49123E-05   -0.73741E-05    48   0.431E-02
  61 F= -.10356003E+03 E0= -.10356003E+03  d E =-.149204E-03
 BRION: g(F)=  0.125E-02 g(S)=  0.000E+00 retain N=  3 mean eig= 3.53
 eig:   1.604  4.493  4.493
 bond charge predicted
       N       E                     dE             d eps       ncg     rms          rms(c)
DAV:   1    -0.103362299549E+03   -0.46268E-03   -0.10211E-01    60   0.170E+00    0.676E-02
RMM:   2    -0.103362377576E+03   -0.78027E-04   -0.13663E-03    60   0.186E-01    0.402E-02
RMM:   3    -0.103362400464E+03   -0.22889E-04   -0.21553E-04    59   0.805E-02    0.154E-02
RMM:   4    -0.103362408917E+03   -0.84525E-05   -0.57690E-05    49   0.383E-02
  62 F= -.10356065E+03 E0= -.10356065E+03  d E =-.622907E-03
 BRION: g(F)=  0.122E-02 g(S)=  0.000E+00 retain N=  2 mean eig= 5.90
 eig:   5.902  5.902
 bond charge predicted
       N       E                     dE             d eps       ncg     rms          rms(c)
DAV:   1    -0.103362832765E+03   -0.43230E-03   -0.11100E-01    60   0.176E+00    0.679E-02
RMM:   2    -0.103362921754E+03   -0.88989E-04   -0.14721E-03    60   0.194E-01    0.400E-02
RMM:   3    -0.103362945762E+03   -0.24008E-04   -0.24216E-04    60   0.832E-02    0.159E-02
RMM:   4    -0.103362953772E+03   -0.80099E-05   -0.53280E-05    48   0.379E-02
  63 F= -.10356126E+03 E0= -.10356126E+03  d E =-.605093E-03
 BRION: g(F)=  0.119E-02 g(S)=  0.000E+00 retain N=  2 mean eig= 4.91
 eig:   4.906  4.906
 bond charge predicted
       N       E                     dE             d eps       ncg     rms          rms(c)
DAV:   1    -0.103362943973E+03    0.17893E-05   -0.19413E-04    74   0.765E-02    0.369E-03
RMM:   2    -0.103362945574E+03   -0.16019E-05   -0.20539E-06    37   0.789E-03
  64 F= -.10356124E+03 E0= -.10356124E+03  d E =0.108399E-04
 BRION: g(F)=  0.120E-02 g(S)=  0.000E+00 retain N=  3 mean eig= 3.60
 eig:   4.877  4.877  1.060
 bond charge predicted
       N       E                     dE             d eps       ncg     rms          rms(c)
DAV:   1    -0.103362928791E+03    0.15181E-04   -0.12833E-04    74   0.601E-02    0.321E-03
RMM:   2    -0.103362930104E+03   -0.13122E-05   -0.14265E-06    29   0.625E-03
  65 F= -.10356123E+03 E0= -.10356123E+03  d E =0.174845E-04
 BRION: g(F)=  0.121E-02 g(S)=  0.000E+00 retain N=  4 mean eig= 3.37
 eig:   5.465  5.465  1.269  1.269
 bond charge predicted
       N       E                     dE             d eps       ncg     rms          rms(c)
DAV:   1    -0.103363066686E+03   -0.13789E-03   -0.55621E-03    60   0.392E-01    0.148E-02
RMM:   2    -0.103363072374E+03   -0.56875E-05   -0.78897E-05    47   0.448E-02
  66 F= -.10356138E+03 E0= -.10356138E+03  d E =-.154532E-03
 BRION: g(F)=  0.123E-02 g(S)=  0.000E+00 retain N=  5 mean eig= 3.27
 eig:   7.497  3.710  0.454  2.356  2.356
 bond charge predicted
       N       E                     dE             d eps       ncg     rms          rms(c)
DAV:   1    -0.103363260452E+03   -0.19377E-03   -0.80678E-03    60   0.494E-01    0.213E-02
RMM:   2    -0.103363265985E+03   -0.55331E-05   -0.13192E-04    55   0.616E-02    0.133E-02
RMM:   3    -0.103363267857E+03   -0.18724E-05   -0.22218E-05    43   0.266E-02
  67 F= -.10356158E+03 E0= -.10356158E+03  d E =-.202556E-03
 BRION: g(F)=  0.122E-02 g(S)=  0.000E+00 retain N=  2 mean eig= 1.39
 eig:   1.393  1.393
 bond charge predicted
       N       E                     dE             d eps       ncg     rms          rms(c)
DAV:   1    -0.103363201855E+03    0.64130E-04   -0.15581E-03    72   0.232E-01    0.112E-02
RMM:   2    -0.103363202368E+03   -0.51347E-06   -0.27778E-05    43   0.308E-02
  68 F= -.10356152E+03 E0= -.10356152E+03  d E =0.628099E-04
 BRION: g(F)=  0.122E-02 g(S)=  0.000E+00 retain N=  3 mean eig= 1.68
 eig:   3.422  0.811  0.811
 bond charge predicted
       N       E                     dE             d eps       ncg     rms          rms(c)
DAV:   1    -0.103363712539E+03   -0.51068E-03   -0.12276E-01    60   0.183E+00    0.689E-02
RMM:   2    -0.103363823582E+03   -0.11104E-03   -0.17108E-03    60   0.210E-01    0.404E-02
RMM:   3    -0.103363848053E+03   -0.24471E-04   -0.25564E-04    59   0.890E-02    0.171E-02
RMM:   4    -0.103363856615E+03   -0.85620E-05   -0.70317E-05    50   0.424E-02
  69 F= -.10356223E+03 E0= -.10356223E+03  d E =-.704704E-03
 BRION: g(F)=  0.969E-03 g(S)=  0.000E+00 retain N=  1 mean eig= 5.72
 eig:   5.723
 bond charge predicted
       N       E                     dE             d eps       ncg     rms          rms(c)
DAV:   1    -0.103364236987E+03   -0.38893E-03   -0.80698E-02    60   0.148E+00    0.573E-02
RMM:   2    -0.103364307484E+03   -0.70496E-04   -0.11335E-03    60   0.168E-01    0.336E-02
RMM:   3    -0.103364324119E+03   -0.16635E-04   -0.17158E-04    55   0.715E-02    0.141E-02
RMM:   4    -0.103364330303E+03   -0.61840E-05   -0.46004E-05    47   0.337E-02
  70 F= -.10356274E+03 E0= -.10356274E+03  d E =-.516091E-03
 BRION: g(F)=  0.947E-03 g(S)=  0.000E+00 retain N=  2 mean eig= 4.60
 eig:   4.598  4.598
 bond charge predicted
       N       E                     dE             d eps       ncg     rms          rms(c)
DAV:   1    -0.103364733410E+03   -0.40929E-03   -0.15612E-01    60   0.206E+00    0.791E-02
RMM:   2    -0.103364875118E+03   -0.14171E-03   -0.22149E-03    60   0.235E-01    0.465E-02
RMM:   3    -0.103364906760E+03   -0.31642E-04   -0.33371E-04    60   0.100E-01    0.195E-02
RMM:   4    -0.103364918557E+03   -0.11797E-04   -0.91957E-05    52   0.480E-02    0.779E-03
RMM:   5    -0.103364921892E+03   -0.33347E-05   -0.13642E-05    42   0.178E-02
  71 F= -.10356339E+03 E0= -.10356339E+03  d E =-.648726E-03
 BRION: g(F)=  0.844E-03 g(S)=  0.000E+00 retain N=  2 mean eig= 4.29
 eig:   4.285  4.285
 bond charge predicted
       N       E                     dE             d eps       ncg     rms          rms(c)
DAV:   1    -0.103365082674E+03   -0.16412E-03   -0.15292E-02    60   0.638E-01    0.251E-02
RMM:   2    -0.103365096162E+03   -0.13488E-04   -0.21266E-04    52   0.724E-02    0.143E-02
RMM:   3    -0.103365100190E+03   -0.40285E-05   -0.33615E-05    45   0.307E-02
  72 F= -.10356359E+03 E0= -.10356359E+03  d E =-.194936E-03
 BRION: g(F)=  0.829E-03 g(S)=  0.000E+00 retain N=  3 mean eig= 3.69
 eig:   4.921  4.921  1.221
 bond charge predicted
       N       E                     dE             d eps       ncg     rms          rms(c)
DAV:   1    -0.103365184141E+03   -0.87980E-04   -0.39398E-03    60   0.323E-01    0.128E-02
RMM:   2    -0.103365188514E+03   -0.43727E-05   -0.61897E-05    47   0.386E-02
  73 F= -.10356368E+03 E0= -.10356368E+03  d E =-.971243E-04
 BRION: g(F)=  0.807E-03 g(S)=  0.000E+00 retain N=  3 mean eig= 3.59
 eig:   4.682  4.682  1.400
 bond charge predicted
       N       E                     dE             d eps       ncg     rms          rms(c)
DAV:   1    -0.103365383759E+03   -0.19962E-03   -0.26900E-02    60   0.844E-01    0.347E-02
RMM:   2    -0.103365405125E+03   -0.21366E-04   -0.38231E-04    58   0.955E-02    0.208E-02
RMM:   3    -0.103365411454E+03   -0.63289E-05   -0.58103E-05    47   0.409E-02
  74 F= -.10356393E+03 E0= -.10356393E+03  d E =-.243666E-03
 BRION: g(F)=  0.792E-03 g(S)=  0.000E+00 retain N=  3 mean eig= 5.44
 eig:   7.446  7.446  1.415
 bond charge predicted
       N       E                     dE             d eps       ncg     rms          rms(c)
DAV:   1    -0.103365551220E+03   -0.14609E-03   -0.13717E-02    60   0.600E-01    0.236E-02
RMM:   2    -0.103365563850E+03   -0.12630E-04   -0.20509E-04    51   0.705E-02    0.144E-02
RMM:   3    -0.103365567869E+03   -0.40189E-05   -0.33476E-05    44   0.302E-02
  75 F= -.10356410E+03 E0= -.10356410E+03  d E =-.170020E-03
 BRION: g(F)=  0.784E-03 g(S)=  0.000E+00 retain N=  3 mean eig= 4.46
 eig:   1.092  6.138  6.138
 bond charge predicted
       N       E                     dE             d eps       ncg     rms          rms(c)
DAV:   1    -0.103365666657E+03   -0.10281E-03   -0.64716E-03    60   0.412E-01    0.161E-02
RMM:   2    -0.103365672860E+03   -0.62037E-05   -0.97662E-05    48   0.486E-02
  76 F= -.10356421E+03 E0= -.10356421E+03  d E =-.113356E-03
 BRION: g(F)=  0.769E-03 g(S)=  0.000E+00 retain N=  2 mean eig= 5.86
 eig:   5.857  5.857
 bond charge predicted
       N       E                     dE             d eps       ncg     rms          rms(c)
DAV:   1    -0.103365885223E+03   -0.21857E-03   -0.41530E-02    60   0.105E+00    0.425E-02
RMM:   2    -0.103365917562E+03   -0.32339E-04   -0.58592E-04    59   0.118E-01    0.256E-02
RMM:   3    -0.103365926555E+03   -0.89930E-05   -0.88981E-05    49   0.508E-02
  77 F= -.10356448E+03 E0= -.10356448E+03  d E =-.274247E-03
 BRION: g(F)=  0.755E-03 g(S)=  0.000E+00
 BRIONS problems: POTIM should be increased
 retain N=  1 mean eig=11.03
 eig:  11.035
 bond charge predicted
       N       E                     dE             d eps       ncg     rms          rms(c)
DAV:   1    -0.103365989677E+03   -0.72115E-04   -0.25170E-03    60   0.259E-01    0.108E-02
RMM:   2    -0.103365992750E+03   -0.30731E-05   -0.45730E-05    46   0.333E-02
  78 F= -.10356455E+03 E0= -.10356455E+03  d E =-.690533E-04
 BRION: g(F)=  0.757E-03 g(S)=  0.000E+00 retain N=  1 mean eig= 0.65
 eig:   0.655
 bond charge predicted
       N       E                     dE             d eps       ncg     rms          rms(c)
DAV:   1    -0.103365993477E+03   -0.37998E-05   -0.21193E-05    80   0.250E-02    0.359E-03
RMM:   2    -0.103365994171E+03   -0.69472E-06   -0.56131E-07    25   0.431E-03
  79 F= -.10356455E+03 E0= -.10356455E+03  d E =-.572637E-06
 BRION: g(F)=  0.763E-03 g(S)=  0.000E+00 retain N=  2 mean eig= 1.94
 eig:   3.006  0.884
 bond charge predicted
       N       E                     dE             d eps       ncg     rms          rms(c)
DAV:   1    -0.103365896858E+03    0.96619E-04   -0.51217E-03    60   0.374E-01    0.146E-02
RMM:   2    -0.103365902785E+03   -0.59266E-05   -0.73818E-05    46   0.425E-02
  80 F= -.10356446E+03 E0= -.10356446E+03  d E =0.929555E-04
 BRION: g(F)=  0.816E-03 g(S)=  0.000E+00 retain N=  1 mean eig= 7.56
 eig:   7.561
 bond charge predicted
       N       E                     dE             d eps       ncg     rms          rms(c)
DAV:   1    -0.103366176367E+03   -0.27951E-03   -0.10721E-01    60   0.170E+00    0.630E-02
RMM:   2    -0.103366277237E+03   -0.10087E-03   -0.14724E-03    60   0.190E-01    0.364E-02
RMM:   3    -0.103366298397E+03   -0.21160E-04   -0.22255E-04    57   0.801E-02    0.151E-02
RMM:   4    -0.103366304600E+03   -0.62026E-05   -0.53119E-05    47   0.367E-02
  81 F= -.10356487E+03 E0= -.10356487E+03  d E =-.409994E-03
 BRION: g(F)=  0.728E-03 g(S)=  0.000E+00
 BRIONS problems: POTIM should be increased
 retain N=  1 mean eig=11.47
 eig:  11.466
 bond charge predicted
       N       E                     dE             d eps       ncg     rms          rms(c)
DAV:   1    -0.103366372462E+03   -0.74065E-04   -0.37306E-03    60   0.327E-01    0.152E-02
RMM:   2    -0.103366375079E+03   -0.26167E-05   -0.65743E-05    47   0.409E-02
  82 F= -.10356494E+03 E0= -.10356494E+03  d E =-.680213E-04
 BRION: g(F)=  0.767E-03 g(S)=  0.000E+00 retain N=  1 mean eig= 0.48
 eig:   0.483
 bond charge predicted
       N       E                     dE             d eps       ncg     rms          rms(c)
DAV:   1    -0.103366371178E+03    0.12844E-05   -0.27243E-04    72   0.884E-02    0.580E-03
RMM:   2    -0.103366371909E+03   -0.73093E-06   -0.66663E-06    36   0.129E-02
  83 F= -.10356494E+03 E0= -.10356494E+03  d E =0.178541E-05
 BRION: g(F)=  0.677E-03 g(S)=  0.000E+00 retain N=  1 mean eig= 0.49
 eig:   0.492
 bond charge predicted
       N       E                     dE             d eps       ncg     rms          rms(c)
DAV:   1    -0.103366403942E+03   -0.32765E-04   -0.72953E-04    60   0.142E-01    0.580E-03
RMM:   2    -0.103366404927E+03   -0.98440E-06   -0.10942E-05    38   0.163E-02
  84 F= -.10356497E+03 E0= -.10356497E+03  d E =-.332264E-04
 BRION: g(F)=  0.655E-03 g(S)=  0.000E+00 retain N=  2 mean eig= 3.24
 eig:   0.582  5.898
 bond charge predicted
       N       E                     dE             d eps       ncg     rms          rms(c)
DAV:   1    -0.103366595734E+03   -0.19179E-03   -0.42452E-02    60   0.109E+00    0.421E-02
RMM:   2    -0.103366633535E+03   -0.37801E-04   -0.60423E-04    60   0.122E-01    0.254E-02
RMM:   3    -0.103366642207E+03   -0.86724E-05   -0.90147E-05    49   0.519E-02
  85 F= -.10356521E+03 E0= -.10356521E+03  d E =-.237235E-03
 BRION: g(F)=  0.639E-03 g(S)=  0.000E+00 retain N=  2 mean eig= 6.36
 eig:   6.359  6.359
 bond charge predicted
       N       E                     dE             d eps       ncg     rms          rms(c)
DAV:   1    -0.103366724308E+03   -0.90773E-04   -0.63006E-03    60   0.424E-01    0.175E-02
RMM:   2    -0.103366730567E+03   -0.62590E-05   -0.10910E-04    48   0.526E-02    0.112E-02
RMM:   3    -0.103366732515E+03   -0.19487E-05   -0.19110E-05    42   0.229E-02
  86 F= -.10356529E+03 E0= -.10356529E+03  d E =-.876884E-04
 BRION: g(F)=  0.645E-03 g(S)=  0.000E+00 retain N=  3 mean eig= 5.61
 eig:   7.962  7.962  0.910
 bond charge predicted
       N       E                     dE             d eps       ncg     rms          rms(c)
DAV:   1    -0.103366895898E+03   -0.16533E-03   -0.39555E-02    60   0.105E+00    0.398E-02
RMM:   2    -0.103366933631E+03   -0.37733E-04   -0.57908E-04    60   0.120E-01    0.241E-02
RMM:   3    -0.103366942218E+03   -0.85875E-05   -0.88959E-05    49   0.513E-02
  87 F= -.10356550E+03 E0= -.10356550E+03  d E =-.209400E-03
 BRION: g(F)=  0.589E-03 g(S)=  0.000E+00 retain N=  1 mean eig= 5.22
 eig:   5.223
 bond charge predicted
       N       E                     dE             d eps       ncg     rms          rms(c)
DAV:   1    -0.103366959855E+03   -0.26225E-04   -0.27252E-04    80   0.907E-02    0.639E-03
RMM:   2    -0.103366960243E+03   -0.38726E-06   -0.53868E-06    38   0.125E-02
  88 F= -.10356552E+03 E0= -.10356552E+03  d E =-.176423E-04
 BRION: g(F)=  0.608E-03 g(S)=  0.000E+00 retain N=  2 mean eig= 3.03
 eig:   5.650  0.411
 bond charge predicted
       N       E                     dE             d eps       ncg     rms          rms(c)
DAV:   1    -0.103366957681E+03    0.21747E-05   -0.23350E-05    66   0.250E-02    0.139E-03
RMM:   2    -0.103366958307E+03   -0.62612E-06   -0.33113E-07    21   0.371E-03
  89 F= -.10356552E+03 E0= -.10356552E+03  d E =0.218568E-05
 BRION: g(F)=  0.605E-03 g(S)=  0.000E+00 retain N=  3 mean eig= 2.28
 eig:   3.117  3.117  0.608
 bond charge predicted
       N       E                     dE             d eps       ncg     rms          rms(c)
DAV:   1    -0.103366997371E+03   -0.39690E-04   -0.19515E-03    60   0.227E-01    0.872E-03
RMM:   2    -0.103366999690E+03   -0.23184E-05   -0.28501E-05    43   0.261E-02
  90 F= -.10356556E+03 E0= -.10356556E+03  d E =-.427784E-04
 BRION: g(F)=  0.619E-03 g(S)=  0.000E+00 retain N=  3 mean eig= 1.30
 eig:   0.893  1.105  1.892
 bond charge predicted
       N       E                     dE             d eps       ncg     rms          rms(c)
DAV:   1    -0.103366998822E+03   -0.14505E-05   -0.14890E-05    64   0.242E-02    0.249E-03
RMM:   2    -0.103366999210E+03   -0.38867E-06   -0.86857E-07    28   0.579E-03
  91 F= -.10356556E+03 E0= -.10356556E+03  d E =-.220399E-06
 BRION: g(F)=  0.639E-03 g(S)=  0.000E+00 retain N=  4 mean eig= 2.32
 eig:   2.582  2.582  1.102  3.013
 bond charge predicted
       N       E                     dE             d eps       ncg     rms          rms(c)
DAV:   1    -0.103366929647E+03    0.69175E-04   -0.68000E-03    60   0.420E-01    0.167E-02
RMM:   2    -0.103366936994E+03   -0.73473E-05   -0.10212E-04    48   0.499E-02    0.946E-03
RMM:   3    -0.103366939037E+03   -0.20424E-05   -0.15052E-05    41   0.207E-02
  92 F= -.10356550E+03 E0= -.10356550E+03  d E =0.660564E-04
 BRION: g(F)=  0.634E-03 g(S)=  0.000E+00 retain N=  2 mean eig= 3.34
 eig:   0.594  6.079
 bond charge predicted
       N       E                     dE             d eps       ncg     rms          rms(c)
DAV:   1    -0.103366925192E+03    0.11802E-04   -0.28272E-03    60   0.293E-01    0.117E-02
RMM:   2    -0.103366928448E+03   -0.32553E-05   -0.50253E-05    45   0.368E-02
  93 F= -.10356548E+03 E0= -.10356548E+03  d E =0.204484E-04
 BRION: g(F)=  0.578E-03 g(S)=  0.000E+00 retain N=  3 mean eig= 2.40
 eig:   5.600  0.349  1.242
 bond charge predicted
       N       E                     dE             d eps       ncg     rms          rms(c)
DAV:   1    -0.103366904144E+03    0.21048E-04   -0.19218E-03    66   0.239E-01    0.114E-02
RMM:   2    -0.103366905828E+03   -0.16843E-05   -0.35326E-05    43   0.311E-02
  94 F= -.10356545E+03 E0= -.10356545E+03  d E =0.262468E-04
 BRION: g(F)=  0.501E-03 g(S)=  0.000E+00 retain N=  3 mean eig= 2.76
 eig:   1.893  3.197  3.197
 bond charge predicted
       N       E                     dE             d eps       ncg     rms          rms(c)
DAV:   1    -0.103366922326E+03   -0.18182E-04   -0.13275E-03    66   0.217E-01    0.978E-03
RMM:   2    -0.103366923204E+03   -0.87769E-06   -0.20311E-05    42   0.263E-02
  95 F= -.10356546E+03 E0= -.10356546E+03  d E =-.125218E-04
 BRION: g(F)=  0.468E-03 g(S)=  0.000E+00 retain N=  3 mean eig= 5.10
 eig:   1.545  6.884  6.884
 bond charge predicted
       N       E                     dE             d eps       ncg     rms          rms(c)
DAV:   1    -0.103366943512E+03   -0.21185E-04   -0.52256E-04    74   0.137E-01    0.614E-03
RMM:   2    -0.103366943817E+03   -0.30536E-06   -0.70098E-06    38   0.156E-02
  96 F= -.10356548E+03 E0= -.10356548E+03  d E =-.209292E-04
 BRION: g(F)=  0.461E-03 g(S)=  0.000E+00 retain N=  3 mean eig= 3.16
 eig:   1.416  4.028  4.028
 bond charge predicted
       N       E                     dE             d eps       ncg     rms          rms(c)
DAV:   1    -0.103366973026E+03   -0.29514E-04   -0.75069E-04    66   0.150E-01    0.605E-03
RMM:   2    -0.103366973742E+03   -0.71616E-06   -0.11279E-05    39   0.174E-02
  97 F= -.10356551E+03 E0= -.10356551E+03  d E =-.313478E-04
 BRION: g(F)=  0.447E-03 g(S)=  0.000E+00 retain N=  3 mean eig= 4.83
 eig:   6.977  6.977  0.537
 bond charge predicted
       N       E                     dE             d eps       ncg     rms          rms(c)
DAV:   1    -0.103367034477E+03   -0.61451E-04   -0.42005E-03    60   0.348E-01    0.135E-02
RMM:   2    -0.103367037947E+03   -0.34701E-05   -0.60496E-05    47   0.397E-02
  98 F= -.10356558E+03 E0= -.10356558E+03  d E =-.695571E-04
 BRION: g(F)=  0.443E-03 g(S)=  0.000E+00 retain N=  3 mean eig= 3.23
 eig:   4.201  4.201  1.281
 bond charge predicted
       N       E                     dE             d eps       ncg     rms          rms(c)
DAV:   1    -0.103367070749E+03   -0.36272E-04   -0.12192E-03    60   0.192E-01    0.915E-03
RMM:   2    -0.103367071502E+03   -0.75309E-06   -0.20519E-05    41   0.231E-02
  99 F= -.10356562E+03 E0= -.10356562E+03  d E =-.368961E-04
 BRION: g(F)=  0.442E-03 g(S)=  0.000E+00 retain N=  3 mean eig= 2.13
 eig:   2.806  2.806  0.778
 bond charge predicted
       N       E                     dE             d eps       ncg     rms          rms(c)
DAV:   1    -0.103367125097E+03   -0.54349E-04   -0.39146E-03    60   0.332E-01    0.129E-02
RMM:   2    -0.103367128349E+03   -0.32519E-05   -0.57996E-05    47   0.380E-02
 100 F= -.10356568E+03 E0= -.10356568E+03  d E =-.629538E-04
 BRION: g(F)=  0.433E-03 g(S)=  0.000E+00
 BRIONS problems: POTIM should be increased
 retain N=  1 mean eig=10.85
 eig:  10.847
 bond charge predicted
       N       E                     dE             d eps       ncg     rms          rms(c)
DAV:   1    -0.103367215448E+03   -0.90351E-04   -0.14839E-02    60   0.645E-01    0.253E-02
RMM:   2    -0.103367227451E+03   -0.12003E-04   -0.21662E-04    55   0.731E-02    0.158E-02
RMM:   3    -0.103367230317E+03   -0.28653E-05   -0.34734E-05    46   0.318E-02
 101 F= -.10356580E+03 E0= -.10356580E+03  d E =-.115327E-03
 BRION: g(F)=  0.427E-03 g(S)=  0.000E+00
 BRIONS problems: POTIM should be increased
 retain N=  1 mean eig= 9.70
 eig:   9.698
 bond charge predicted
       N       E                     dE             d eps       ncg     rms          rms(c)
DAV:   1    -0.103367253660E+03   -0.26209E-04   -0.86867E-04    72   0.157E-01    0.674E-03
RMM:   2    -0.103367254574E+03   -0.91467E-06   -0.17006E-05    42   0.206E-02
 102 F= -.10356583E+03 E0= -.10356583E+03  d E =-.272895E-04
 BRION: g(F)=  0.431E-03 g(S)=  0.000E+00 retain N=  1 mean eig= 0.33
 eig:   0.331
 bond charge predicted
       N       E                     dE             d eps       ncg     rms          rms(c)
DAV:   1    -0.103367262558E+03   -0.88981E-05   -0.10287E-04    74   0.543E-02    0.380E-03
RMM:   2    -0.103367262660E+03   -0.10166E-06   -0.17703E-06    25   0.688E-03
 103 F= -.10356584E+03 E0= -.10356584E+03  d E =-.968051E-05
 BRION: g(F)=  0.434E-03 g(S)=  0.000E+00 retain N=  2 mean eig= 4.16
 eig:   0.657  7.656
 bond charge predicted
       N       E                     dE             d eps       ncg     rms          rms(c)
DAV:   1    -0.103367104264E+03    0.15829E-03   -0.24571E-02    60   0.822E-01    0.310E-02
RMM:   2    -0.103367127995E+03   -0.23731E-04   -0.34159E-04    58   0.913E-02    0.180E-02
RMM:   3    -0.103367134148E+03   -0.61529E-05   -0.53457E-05    47   0.387E-02
 104 F= -.10356569E+03 E0= -.10356569E+03  d E =0.148445E-03
 BRION: g(F)=  0.482E-03 g(S)=  0.000E+00 retain N=  1 mean eig= 7.81
 eig:   7.805
 bond charge predicted
       N       E                     dE             d eps       ncg     rms          rms(c)
DAV:   1    -0.103367247186E+03   -0.11919E-03   -0.17033E-01    60   0.216E+00    0.803E-02
RMM:   2    -0.103367400027E+03   -0.15284E-03   -0.22993E-03    60   0.236E-01    0.469E-02
RMM:   3    -0.103367433024E+03   -0.32997E-04   -0.35785E-04    62   0.998E-02    0.187E-02
RMM:   4    -0.103367441388E+03   -0.83635E-05   -0.77252E-05    49   0.452E-02
 105 F= -.10356605E+03 E0= -.10356605E+03  d E =-.361938E-03
 BRION: g(F)=  0.413E-03 g(S)=  0.000E+00
 BRIONS problems: POTIM should be increased
 retain N=  1 mean eig=20.53
 eig:  20.527
 bond charge predicted
       N       E                     dE             d eps       ncg     rms          rms(c)
DAV:   1    -0.103367519401E+03   -0.86376E-04   -0.87289E-02    60   0.155E+00    0.579E-02
RMM:   2    -0.103367596398E+03   -0.76997E-04   -0.12397E-03    60   0.174E-01    0.351E-02
RMM:   3    -0.103367612815E+03   -0.16417E-04   -0.20077E-04    54   0.745E-02    0.150E-02
RMM:   4    -0.103367618084E+03   -0.52687E-05   -0.45788E-05    47   0.337E-02
 106 F= -.10356626E+03 E0= -.10356626E+03  d E =-.211795E-03
 BRION: g(F)=  0.458E-03 g(S)=  0.000E+00 retain N=  1 mean eig= 1.00
 eig:   1.001
 bond charge predicted
       N       E                     dE             d eps       ncg     rms          rms(c)
DAV:   1    -0.103367505352E+03    0.10746E-03   -0.24302E-02    60   0.819E-01    0.311E-02
RMM:   2    -0.103367529440E+03   -0.24089E-04   -0.33689E-04    58   0.907E-02    0.182E-02
RMM:   3    -0.103367536561E+03   -0.71206E-05   -0.51747E-05    46   0.381E-02
 107 F= -.10356616E+03 E0= -.10356616E+03  d E =0.990107E-04
 BRION: g(F)=  0.418E-03 g(S)=  0.000E+00 retain N=  1 mean eig= 1.67
 eig:   1.667
 bond charge predicted
       N       E                     dE             d eps       ncg     rms          rms(c)
DAV:   1    -0.103367580538E+03   -0.51098E-04   -0.58421E-03    60   0.396E-01    0.151E-02
RMM:   2    -0.103367585952E+03   -0.54135E-05   -0.73377E-05    47   0.416E-02
 108 F= -.10356622E+03 E0= -.10356622E+03  d E =-.598947E-04
 BRION: g(F)=  0.386E-03 g(S)=  0.000E+00 retain N=  2 mean eig= 4.35
 eig:   4.353  4.353
 reached required accuracy - stopping structural energy minimisation
