 vasp.6.3.2 27Jun22 (build Oct 05 2023 17:59:42) gamma-only                     
  
 executed on             LinuxIFC date 2024.04.08  10:32:50
 running on   10 total cores
 distrk:  each k-point on   10 cores,    1 groups
 distr:  one band on NCORE=   1 cores,   10 groups


--------------------------------------------------------------------------------------------------------


 INCAR:
   ENCUT = 400.000000
   GGA = PE
   IVDW = 11
   ISMEAR = 0
   SIGMA = 0.050000
   ALGO = Fast
   ISPIN = 1
   NPAR = 4
   LCHARG = .FALSE.
   LWAVE = .FALSE.

 POTCAR:    PAW_PBE C 08Apr2002                   
 POTCAR:    PAW_PBE H 15Jun2001                   
 POTCAR:    PAW_PBE N 08Apr2002                   
 -----------------------------------------------------------------------------
|                                                                             |
|           W    W    AA    RRRRR   N    N  II  N    N   GGGG   !!!           |
|           W    W   A  A   R    R  NN   N  II  NN   N  G    G  !!!           |
|           W    W  A    A  R    R  N N  N  II  N N  N  G       !!!           |
|           W WW W  AAAAAA  RRRRR   N  N N  II  N  N N  G  GGG   !            |
|           WW  WW  A    A  R   R   N   NN  II  N   NN  G    G                |
|           W    W  A    A  R    R  N    N  II  N    N   GGGG   !!!           |
|                                                                             |
|     The value NPAR = 4 specified in the INCAR file was overwritten,         |
|     because it was not compatible with the 10 processes available:          |
|     NPAR = 10                                                               |
|     was used instead, please check that this makes sense for your           |
|     machine.                                                                |
|                                                                             |
 -----------------------------------------------------------------------------

 -----------------------------------------------------------------------------
|                                                                             |
|           W    W    AA    RRRRR   N    N  II  N    N   GGGG   !!!           |
|           W    W   A  A   R    R  NN   N  II  NN   N  G    G  !!!           |
|           W    W  A    A  R    R  N N  N  II  N N  N  G       !!!           |
|           W WW W  AAAAAA  RRRRR   N  N N  II  N  N N  G  GGG   !            |
|           WW  WW  A    A  R   R   N   NN  II  N   NN  G    G                |
|           W    W  A    A  R    R  N    N  II  N    N   GGGG   !!!           |
|                                                                             |
|     For optimal performance we recommend to set                             |
|       NCORE = 2 up to number-of-cores-per-socket                            |
|     NCORE specifies how many cores store one orbital (NPAR=cpu/NCORE).      |
|     This setting can greatly improve the performance of VASP for DFT.       |
|     The default, NCORE=1 might be grossly inefficient on modern             |
|     multi-core architectures or massively parallel machines. Do your        |
|     own testing! More info at https://www.vasp.at/wiki/index.php/NCORE      |
|     Unfortunately you need to use the default for GW and RPA                |
|     calculations (for HF NCORE is supported but not extensively tested      |
|     yet).                                                                   |
|                                                                             |
 -----------------------------------------------------------------------------

 POTCAR:    PAW_PBE C 08Apr2002                   
   SHA256 =  253f7b50bb8d59471dbedb8285d89021f4a42ed1a2c5d38a03a736e69125dd95 C/POTCAR              
   COPYR  = (c) Copyright 08Apr2002 Georg Kresse                                                    
   COPYR  = This file is part of the software VASP. Any use, copying, and all other rights are regul
   COPYR  = If you do not have a valid VASP license, you may not use, copy or distribute this file. 
   VRHFIN =C: s2p2                                                                                  
   LEXCH  = PE                                                                                      
   EATOM  =   147.1560 eV,   10.8157 Ry                                                             
                                                                                                    
   TITEL  = PAW_PBE C 08Apr2002                                                                     
   LULTRA =        F    use ultrasoft PP ?                                                          
   IUNSCR =        1    unscreen: 0-lin 1-nonlin 2-no                                               
   RPACOR =    1.200    partial core radius                                                         
   POMASS =   12.011; ZVAL   =    4.000    mass and valenz                                          
   RCORE  =    1.500    outmost cutoff radius                                                       
   RWIGS  =    1.630; RWIGS  =    0.863    wigner-seitz radius (au A)                               
   ENMAX  =  400.000; ENMIN  =  300.000 eV                                                          
   ICORE  =        2    local potential                                                             
   LCOR   =        T    correct aug charges                                                         
   LPAW   =        T    paw PP                                                                      
   EAUG   =  644.873                                                                                
   DEXC   =    0.000                                                                                
   RMAX   =    1.529    core radius for proj-oper                                                   
   RAUG   =    1.300    factor for augmentation sphere                                              
   RDEP   =    1.501    radius for radial grids                                                     
   RDEPT  =    1.300    core radius for aug-charge                                                  
                                                                                                    
   Atomic configuration                                                                             
    4 entries                                                                                       
     n  l   j            E        occ.                                                              
     1  0  0.50      -273.3789   2.0000                                                             
     2  0  0.50       -13.7508   2.0000                                                             
     2  1  0.50        -5.2854   2.0000                                                             
     3  2  1.50        -5.4423   0.0000                                                             
   Description                                                                                      
     l       E           TYP  RCUT    TYP  RCUT                                                     
     0    -13.7508458     23  1.200                                                                 
     0     -8.2022199     23  1.200                                                                 
     1     -5.2854383     23  1.500                                                                 
     1     34.0145650     23  1.500                                                                 
     2     -5.4423304      7  1.500                                                                 
  local pseudopotential read in
  partial core-charges read in
  partial kinetic energy density read in
  atomic valenz-charges read in
  non local Contribution for L=           0  read in
    real space projection operators read in
  non local Contribution for L=           0  read in
    real space projection operators read in
  non local Contribution for L=           1  read in
    real space projection operators read in
  non local Contribution for L=           1  read in
    real space projection operators read in
    PAW grid and wavefunctions read in
 
   number of l-projection  operators is LMAX  =           4
   number of lm-projection operators is LMMAX =           8
 
 POTCAR:    PAW_PBE H 15Jun2001                   
   SHA256 =  030f79b5d3ab3cf0e668861823c8fb652ff669f3e15e46930bd03bfd63a607b6 H/POTCAR              
   COPYR  = (c) Copyright 15Jun2001 Georg Kresse                                                    
   COPYR  = This file is part of the software VASP. Any use, copying, and all other rights are regul
   COPYR  = If you do not have a valid VASP license, you may not use, copy or distribute this file. 
   VRHFIN =H: ultrasoft test                                                                        
   LEXCH  = PE                                                                                      
   EATOM  =    12.4884 eV,    0.9179 Ry                                                             
                                                                                                    
   TITEL  = PAW_PBE H 15Jun2001                                                                     
   LULTRA =        F    use ultrasoft PP ?                                                          
   IUNSCR =        0    unscreen: 0-lin 1-nonlin 2-no                                               
   RPACOR =    0.000    partial core radius                                                         
   POMASS =    1.000; ZVAL   =    1.000    mass and valenz                                          
   RCORE  =    1.100    outmost cutoff radius                                                       
   RWIGS  =    0.700; RWIGS  =    0.370    wigner-seitz radius (au A)                               
   ENMAX  =  250.000; ENMIN  =  200.000 eV                                                          
   RCLOC  =    0.701    cutoff for local pot                                                        
   LCOR   =        T    correct aug charges                                                         
   LPAW   =        T    paw PP                                                                      
   EAUG   =  400.000                                                                                
   RMAX   =    1.123    core radius for proj-oper                                                   
   RAUG   =    1.200    factor for augmentation sphere                                              
   RDEP   =    1.112    radius for radial grids                                                     
   RDEPT  =    0.926    core radius for aug-charge                                                  
                                                                                                    
   Atomic configuration                                                                             
    2 entries                                                                                       
     n  l   j            E        occ.                                                              
     1  0  0.50        -6.4927   1.0000                                                             
     2  1  0.50        -3.4015   0.0000                                                             
   Description                                                                                      
     l       E           TYP  RCUT    TYP  RCUT                                                     
     0     -6.4927494     23  1.100                                                                 
     0      6.8029130     23  1.100                                                                 
     1     -4.0817478     23  1.100                                                                 
  local pseudopotential read in
  atomic valenz-charges read in
  non local Contribution for L=           0  read in
    real space projection operators read in
  non local Contribution for L=           0  read in
    real space projection operators read in
  non local Contribution for L=           1  read in
    real space projection operators read in
    PAW grid and wavefunctions read in
 
   number of l-projection  operators is LMAX  =           3
   number of lm-projection operators is LMMAX =           5
 
 POTCAR:    PAW_PBE N 08Apr2002                   
   SHA256 =  e053789ff3a61a86a1b75d8a110fcc91f86041011e7b0817c7c99e4e8a6349d7 N/POTCAR              
   COPYR  = (c) Copyright 08Apr2002 Georg Kresse                                                    
   COPYR  = This file is part of the software VASP. Any use, copying, and all other rights are regul
   COPYR  = If you do not have a valid VASP license, you may not use, copy or distribute this file. 
   VRHFIN =N: s2p3                                                                                  
   LEXCH  = PE                                                                                      
   EATOM  =   264.5486 eV,   19.4438 Ry                                                             
                                                                                                    
   TITEL  = PAW_PBE N 08Apr2002                                                                     
   LULTRA =        F    use ultrasoft PP ?                                                          
   IUNSCR =        1    unscreen: 0-lin 1-nonlin 2-no                                               
   RPACOR =    1.200    partial core radius                                                         
   POMASS =   14.001; ZVAL   =    5.000    mass and valenz                                          
   RCORE  =    1.500    outmost cutoff radius                                                       
   RWIGS  =    1.400; RWIGS  =    0.741    wigner-seitz radius (au A)                               
   ENMAX  =  400.000; ENMIN  =  300.000 eV                                                          
   ICORE  =        2    local potential                                                             
   LCOR   =        T    correct aug charges                                                         
   LPAW   =        T    paw PP                                                                      
   EAUG   =  627.112                                                                                
   DEXC   =    0.000                                                                                
   RMAX   =    1.529    core radius for proj-oper                                                   
   RAUG   =    1.300    factor for augmentation sphere                                              
   RDEP   =    1.514    radius for radial grids                                                     
   RDEPT  =    1.338    core radius for aug-charge                                                  
                                                                                                    
   Atomic configuration                                                                             
    4 entries                                                                                       
     n  l   j            E        occ.                                                              
     1  0  0.50      -384.7179   2.0000                                                             
     2  0  0.50       -18.5828   2.0000                                                             
     2  1  0.50        -7.0898   3.0000                                                             
     3  2  1.50        -6.8029   0.0000                                                             
   Description                                                                                      
     l       E           TYP  RCUT    TYP  RCUT                                                     
     0    -18.5828119     23  1.200                                                                 
     0    -13.5018863     23  1.200                                                                 
     1     -7.0897853     23  1.500                                                                 
     1      9.5240782     23  1.500                                                                 
     2     -6.8029130      7  1.500                                                                 
  local pseudopotential read in
  partial core-charges read in
  partial kinetic energy density read in
  atomic valenz-charges read in
  non local Contribution for L=           0  read in
    real space projection operators read in
  non local Contribution for L=           0  read in
    real space projection operators read in
  non local Contribution for L=           1  read in
    real space projection operators read in
  non local Contribution for L=           1  read in
    real space projection operators read in
    PAW grid and wavefunctions read in
 
   number of l-projection  operators is LMAX  =           4
   number of lm-projection operators is LMMAX =           8
 
 -----------------------------------------------------------------------------
|                                                                             |
|               ----> ADVICE to this user running VASP <----                  |
|                                                                             |
|     You have a (more or less) 'large supercell' and for larger cells it     |
|     might be more efficient to use real-space projection operators.         |
|     Therefore, try LREAL= Auto in the INCAR file.                           |
|     Mind: For very accurate calculation, you might also keep the            |
|     reciprocal projection scheme (i.e. LREAL=.FALSE.).                      |
|                                                                             |
 -----------------------------------------------------------------------------

  PAW_PBE C 08Apr2002                   :
 energy of atom  1       EATOM= -147.1560
 kinetic energy error for atom=    0.0288 (will be added to EATOM!!)
  PAW_PBE H 15Jun2001                   :
 energy of atom  2       EATOM=  -12.4884
 kinetic energy error for atom=    0.0098 (will be added to EATOM!!)
  PAW_PBE N 08Apr2002                   :
 energy of atom  3       EATOM= -264.5486
 kinetic energy error for atom=    0.0736 (will be added to EATOM!!)
 
 
 POSCAR:  C  H  N
  positions in cartesian coordinates
  No initial velocities read in
 exchange correlation table for  LEXCH =        8
   RHO(1)=    0.500       N(1)  =     2000
   RHO(2)=  100.500       N(2)  =     4000

 VTST: version 4.1, (05/19/21)

 CHAIN: initializing optimizer
 
 OPT: Using VASP Dynamics algorithm
 CHAIN: Read ICHAIN            0
 
 POSCAR:  C  H  N
  positions in cartesian coordinates
  No initial velocities read in
 


--------------------------------------------------------------------------------------------------------


 ion  position               nearest neighbor table
   1  0.347  0.438  0.563-   8 1.09   2 1.34   4 1.50
   2  0.342  0.524  0.571-  11 1.09   1 1.34   3 1.50
   3  0.420  0.583  0.567-  13 1.10  12 1.10   2 1.50   6 1.55
   4  0.431  0.389  0.553-   9 1.10  10 1.11   1 1.50   5 1.53
   5  0.510  0.445  0.573-  14 1.10  15 1.10   4 1.53   6 1.55
   6  0.500  0.536  0.531-  16 1.10   7 1.46   5 1.55   3 1.55
   7  0.579  0.588  0.542-  17 1.17   6 1.46
   8  0.287  0.399  0.565-   1 1.09
   9  0.431  0.331  0.595-   4 1.10
  10  0.435  0.363  0.486-   4 1.11
  11  0.279  0.555  0.579-   2 1.09
  12  0.434  0.609  0.632-   3 1.10
  13  0.405  0.640  0.526-   3 1.10
  14  0.570  0.414  0.551-   5 1.10
  15  0.516  0.454  0.644-   5 1.10
  16  0.491  0.526  0.460-   6 1.10
  17  0.641  0.629  0.553-   7 1.17
 
  LATTYP: Found a simple cubic cell.
 ALAT       =    15.4022502899
  
  Lattice vectors:
  
 A1 = (  15.4022502899,   0.0000000000,   0.0000000000)
 A2 = (   0.0000000000,  15.4022502899,   0.0000000000)
 A3 = (   0.0000000000,   0.0000000000,  15.4022502899)


Analysis of symmetry for initial positions (statically):
=====================================================================
 Subroutine PRICEL returns:
 Original cell was already a primitive cell.
 

 Routine SETGRP: Setting up the symmetry group for a 
 simple cubic supercell.


 Subroutine GETGRP returns: Found  1 space group operations
 (whereof  1 operations were pure point group operations)
 out of a pool of 48 trial point group operations.


The static configuration has the point symmetry C_1 .


Analysis of symmetry for dynamics (positions and initial velocities):
=====================================================================
 Subroutine PRICEL returns:
 Original cell was already a primitive cell.
 

 Routine SETGRP: Setting up the symmetry group for a 
 simple cubic supercell.


 Subroutine GETGRP returns: Found  1 space group operations
 (whereof  1 operations were pure point group operations)
 out of a pool of 48 trial point group operations.


The dynamic configuration has the point symmetry C_1 .


 Subroutine INISYM returns: Found  1 space group operations
 (whereof  1 operations are pure point group operations),
 and found     1 'primitive' translations


----------------------------------------------------------------------------------------

                                     Primitive cell                                     

  volume of cell :    3653.8653

  direct lattice vectors                    reciprocal lattice vectors
    15.402250290  0.000000000  0.000000000     0.064925578  0.000000000  0.000000000
     0.000000000 15.402250290  0.000000000     0.000000000  0.064925578  0.000000000
     0.000000000  0.000000000 15.402250290     0.000000000  0.000000000  0.064925578

  length of vectors
    15.402250290 15.402250290 15.402250290     0.064925578  0.064925578  0.064925578

  position of ions in fractional coordinates (direct lattice)
     0.346691856  0.437618081  0.563197260
     0.342063217  0.524168308  0.570545024
     0.419691922  0.583258132  0.566669146
     0.430676907  0.388884993  0.552837819
     0.510009482  0.445265868  0.573358080
     0.500336603  0.535556464  0.530692509
     0.578643016  0.587801850  0.542009196
     0.286976901  0.399328057  0.564974937
     0.430593822  0.331401017  0.595443915
     0.435264902  0.362838044  0.486114370
     0.278931254  0.555306551  0.579491245
     0.434356838  0.609394869  0.631787874
     0.405404037  0.640183002  0.525829070
     0.570035939  0.413850222  0.551007914
     0.516018381  0.454267610  0.644034154
     0.491249850  0.526109794  0.460177499
     0.641090043  0.629345016  0.552615248

  ion indices of the primitive-cell ions
   primitive index   ion index
                 1           1
                 2           2
                 3           3
                 4           4
                 5           5
                 6           6
                 7           7
                 8           8
                 9           9
                10          10
                11          11
                12          12
                13          13
                14          14
                15          15
                16          16
                17          17

----------------------------------------------------------------------------------------

 
 
 KPOINTS: KPOINTS created by Atomic Simulation Env

Automatic generation of k-mesh.
 Grid dimensions read from file:
 generate k-points for:    1    1    1

 Generating k-lattice:

  Cartesian coordinates                     Fractional coordinates (reciprocal lattice)
     0.064925578  0.000000000  0.000000000     1.000000000  0.000000000  0.000000000
     0.000000000  0.064925578  0.000000000     0.000000000  1.000000000  0.000000000
     0.000000000  0.000000000  0.064925578     0.000000000  0.000000000  1.000000000

  Length of vectors
     0.064925578  0.064925578  0.064925578

  Shift w.r.t. Gamma in fractional coordinates (k-lattice)
     0.000000000  0.000000000  0.000000000

 
 Subroutine IBZKPT returns following result:
 ===========================================
 
 Found      1 irreducible k-points:
 
 Following reciprocal coordinates:
            Coordinates               Weight
  0.000000  0.000000  0.000000      1.000000
 
 Following cartesian coordinates:
            Coordinates               Weight
  0.000000  0.000000  0.000000      1.000000
 


--------------------------------------------------------------------------------------------------------




 Dimension of arrays:
   k-points           NKPTS =      1   k-points in BZ     NKDIM =      1   number of bands    NBANDS=     30
   number of dos      NEDOS =    301   number of ions     NIONS =     17
   non local maximal  LDIM  =      4   non local SUM 2l+1 LMDIM =      8
   total plane-waves  NPLWV = 512000
   max r-space proj   IRMAX =      1   max aug-charges    IRDMAX=   1924
   dimension x,y,z NGX =    80 NGY =   80 NGZ =   80
   dimension x,y,z NGXF=   160 NGYF=  160 NGZF=  160
   support grid    NGXF=   160 NGYF=  160 NGZF=  160
   ions per type =               7   9   1
   NGX,Y,Z   is equivalent  to a cutoff of   8.63,  8.63,  8.63 a.u.
   NGXF,Y,Z  is equivalent  to a cutoff of  17.27, 17.27, 17.27 a.u.

 SYSTEM =  unknown system                          
 POSCAR =   C  H  N                                

 Startparameter for this run:
   NWRITE =      2    write-flag & timer
   PREC   = normal    normal or accurate (medium, high low for compatibility)
   ISTART =      0    job   : 0-new  1-cont  2-samecut
   ICHARG =      2    charge: 1-file 2-atom 10-const
   ISPIN  =      1    spin polarized calculation?
   LNONCOLLINEAR =      F non collinear calculations
   LSORBIT =      F    spin-orbit coupling
   INIWAV =      1    electr: 0-lowe 1-rand  2-diag
   LASPH  =      F    aspherical Exc in radial PAW
 Electronic Relaxation 1
   ENCUT  =  400.0 eV  29.40 Ry    5.42 a.u.  25.12 25.12 25.12*2*pi/ulx,y,z
   ENINI  =  400.0     initial cutoff
   ENAUG  =  644.9 eV  augmentation charge cutoff
   NELM   =     60;   NELMIN=  2; NELMDL=  0     # of ELM steps 
   EDIFF  = 0.1E-03   stopping-criterion for ELM
   LREAL  =      F    real-space projection
   NLSPLINE    = F    spline interpolate recip. space projectors
   LCOMPAT=      F    compatible to vasp.4.4
   GGA_COMPAT  = T    GGA compatible to vasp.4.4-vasp.4.6
   LMAXPAW     = -100 max onsite density
   LMAXMIX     =    2 max onsite mixed and CHGCAR
   VOSKOWN=      0    Vosko Wilk Nusair interpolation
   ROPT   =    0.00000   0.00000   0.00000
 Ionic relaxation
   EDIFFG = 0.1E-02   stopping-criterion for IOM
   NSW    =      0    number of steps for IOM
   NBLOCK =      1;   KBLOCK =      1    inner block; outer block 
   IBRION =     -1    ionic relax: 0-MD 1-quasi-New 2-CG
   NFREE  =      0    steps in history (QN), initial steepest desc. (CG)
   ISIF   =      2    stress and relaxation
   IWAVPR =     10    prediction:  0-non 1-charg 2-wave 3-comb
   ISYM   =      2    0-nonsym 1-usesym 2-fastsym
   LCORR  =      T    Harris-Foulkes like correction to forces

   POTIM  = 0.5000    time-step for ionic-motion
   TEIN   =    0.0    initial temperature
   TEBEG  =    0.0;   TEEND  =   0.0 temperature during run
   SMASS  =  -3.00    Nose mass-parameter (am)
   estimated Nose-frequenzy (Omega)   =  0.10E-29 period in steps = 0.13E+47 mass=  -0.542E-26a.u.
   SCALEE = 1.0000    scale energy and forces
   NPACO  =    256;   APACO  = 10.0  distance and # of slots for P.C.
   PSTRESS=    0.0 pullay stress

  Mass of Ions in am
   POMASS =  12.01  1.00 14.00
  Ionic Valenz
   ZVAL   =   4.00  1.00  5.00
  Atomic Wigner-Seitz radii
   RWIGS  =  -1.00 -1.00 -1.00
  virtual crystal weights 
   VCA    =   1.00  1.00  1.00
   NELECT =      42.0000    total number of electrons
   NUPDOWN=      -1.0000    fix difference up-down

 DOS related values:
   EMIN   =  10.00;   EMAX   =-10.00  energy-range for DOS
   EFERMI =   0.00
   ISMEAR =     0;   SIGMA  =   0.05  broadening in eV -4-tet -1-fermi 0-gaus

 Electronic relaxation 2 (details)
   IALGO  =     68    algorithm
   LDIAG  =      T    sub-space diagonalisation (order eigenvalues)
   LSUBROT=      F    optimize rotation matrix (better conditioning)
   TURBO    =      0    0=normal 1=particle mesh
   IRESTART =      0    0=no restart 2=restart with 2 vectors
   NREBOOT  =      0    no. of reboots
   NMIN     =      0    reboot dimension
   EREF     =   0.00    reference energy to select bands
   IMIX   =      4    mixing-type and parameters
     AMIX     =   0.40;   BMIX     =  1.00
     AMIX_MAG =   1.60;   BMIX_MAG =  1.00
     AMIN     =   0.10
     WC   =   100.;   INIMIX=   1;  MIXPRE=   1;  MAXMIX= -45

 Intra band minimization:
   WEIMIN = 0.0000     energy-eigenvalue tresh-hold
   EBREAK =  0.83E-06  absolut break condition
   DEPER  =   0.30     relativ break condition  

   TIME   =   0.40     timestep for ELM

  volume/ion in A,a.u.               =     214.93      1450.44
  Fermi-wavevector in a.u.,A,eV,Ry     =   0.369465  0.698188  1.857259  0.136505
  Thomas-Fermi vector in A             =   1.296107
 
 Write flags
   LWAVE        =      F    write WAVECAR
   LDOWNSAMPLE  =      F    k-point downsampling of WAVECAR
   LCHARG       =      F    write CHGCAR
   LVTOT        =      F    write LOCPOT, total local potential
   LVHAR        =      F    write LOCPOT, Hartree potential only
   LELF         =      F    write electronic localiz. function (ELF)
   LORBIT       =      0    0 simple, 1 ext, 2 COOP (PROOUT), +10 PAW based schemes


 Dipole corrections
   LMONO  =      F    monopole corrections only (constant potential shift)
   LDIPOL =      F    correct potential (dipole corrections)
   IDIPOL =      0    1-x, 2-y, 3-z, 4-all directions 
   EPSILON=  1.0000000 bulk dielectric constant

 Exchange correlation treatment:
   GGA     =    PE    GGA type
   LEXCH   =     8    internal setting for exchange type
   LIBXC   =     F    Libxc                    
   VOSKOWN =     0    Vosko Wilk Nusair interpolation
   LHFCALC =     F    Hartree Fock is set to
   LHFONE  =     F    Hartree Fock one center treatment
   AEXX    =    0.0000 exact exchange contribution

 Linear response parameters
   LEPSILON=     F    determine dielectric tensor
   LRPA    =     F    only Hartree local field effects (RPA)
   LNABLA  =     F    use nabla operator in PAW spheres
   LVEL    =     F    velocity operator in full k-point grid
   CSHIFT  =0.1000    complex shift for real part using Kramers Kronig
   OMEGAMAX=  -1.0    maximum frequency
   DEG_THRESHOLD= 0.2000000E-02 threshold for treating states as degnerate
   RTIME   =   -0.100 relaxation time in fs
  (WPLASMAI=    0.000 imaginary part of plasma frequency in eV, 0.658/RTIME)
   DFIELD  = 0.0000000 0.0000000 0.0000000 field for delta impulse in time
 
  Optional k-point grid parameters
   LKPOINTS_OPT  =     F    use optional k-point grid
   KPOINTS_OPT_MODE=     1    mode for optional k-point grid
 
 Orbital magnetization related:
   ORBITALMAG=     F  switch on orbital magnetization
   LCHIMAG   =     F  perturbation theory with respect to B field
   DQ        =  0.001000  dq finite difference perturbation B field
   LLRAUG    =     F  two centre corrections for induced B field



--------------------------------------------------------------------------------------------------------


 Static calculation
 charge density and potential will be updated during run
 non-spin polarized calculation
 RMM-DIIS sequential band-by-band and
  variant of blocked Davidson during initial phase
 perform sub-space diagonalisation
    before iterative eigenvector-optimisation
 modified Broyden-mixing scheme, WC =      100.0
 initial mixing is a Kerker type mixing with AMIX =  0.4000 and BMIX =      1.0000
 Hartree-type preconditioning will be used
 using additional bands            9
 reciprocal scheme for non local part
 use partial core corrections
 calculate Harris-corrections to forces 
   (improved forces if not selfconsistent)
 use gradient corrections 
 use of overlap-Matrix (Vanderbilt PP)
 Gauss-broadening in eV      SIGMA  =   0.05


--------------------------------------------------------------------------------------------------------


  energy-cutoff  :      400.00
  volume of cell :     3653.87
      direct lattice vectors                 reciprocal lattice vectors
    15.402250290  0.000000000  0.000000000     0.064925578  0.000000000  0.000000000
     0.000000000 15.402250290  0.000000000     0.000000000  0.064925578  0.000000000
     0.000000000  0.000000000 15.402250290     0.000000000  0.000000000  0.064925578

  length of vectors
    15.402250290 15.402250290 15.402250290     0.064925578  0.064925578  0.064925578


 
 k-points in units of 2pi/SCALE and weight: KPOINTS created by Atomic Simulation Env
   0.00000000  0.00000000  0.00000000       1.000
 
 k-points in reciprocal lattice and weights: KPOINTS created by Atomic Simulation Env
   0.00000000  0.00000000  0.00000000       1.000
 
 position of ions in fractional coordinates (direct lattice) 
   0.34669186  0.43761808  0.56319726
   0.34206322  0.52416831  0.57054502
   0.41969192  0.58325813  0.56666915
   0.43067691  0.38888499  0.55283782
   0.51000948  0.44526587  0.57335808
   0.50033660  0.53555646  0.53069251
   0.57864302  0.58780185  0.54200920
   0.28697690  0.39932806  0.56497494
   0.43059382  0.33140102  0.59544392
   0.43526490  0.36283804  0.48611437
   0.27893125  0.55530655  0.57949124
   0.43435684  0.60939487  0.63178787
   0.40540404  0.64018300  0.52582907
   0.57003594  0.41385022  0.55100791
   0.51601838  0.45426761  0.64403415
   0.49124985  0.52610979  0.46017750
   0.64109004  0.62934502  0.55261525
 
 position of ions in cartesian coordinates  (Angst):
   5.33983474  6.74030321  8.67450516
   5.26854329  8.07337148  8.78767727
   6.46420002  8.98348774  8.72798002
   6.63339351  5.98970400  8.51494647
   7.85529369  6.85809635  8.83100465
   7.70630959  8.24877470  8.17385885
   8.91240457  9.05347122  8.34816129
   4.42009006  6.15055068  8.70188539
   6.63211383  5.10432141  9.17117621
   6.70405896  5.58852237  7.48725520
   4.29616899  8.55297049  8.92546919
   6.69007274  9.38605229  9.73095497
   6.24413444  9.86025883  8.09895094
   8.77983620  6.37422471  8.48676181
   7.94784425  6.99674343  9.91957523
   7.56635314  8.10327473  7.08776902
   9.87422930  9.69332945  8.51151836
 


--------------------------------------------------------------------------------------------------------


 use serial FFT for orbitals x direction half grid
 k-point   1 :   0.0000 0.0000 0.0000  plane waves:   33270

 maximum and minimum number of plane-waves per node :     33270    33270

 maximum number of plane-waves:     33270
 maximum index in each direction: 
   IXMAX=   25   IYMAX=   25   IZMAX=   25
   IXMIN=    0   IYMIN=  -25   IZMIN=  -25


 serial   3D FFT for wavefunctions
 parallel 3D FFT for charge:
    minimum data exchange during FFTs selected (reduces bandwidth)


 total amount of memory used by VASP MPI-rank0   110105. kBytes
=======================================================================

   base      :      30000. kBytes
   nonl-proj :      15437. kBytes
   fftplans  :      16001. kBytes
   grid      :      47042. kBytes
   one-center:         26. kBytes
   wavefun   :       1599. kBytes
 
     INWAV:  cpu time      0.0000: real time      0.0000
 Broyden mixing: mesh for mixing (old mesh)
   NGX = 51   NGY = 51   NGZ = 51
  (NGX  =160   NGY  =160   NGZ  =160)
  gives a total of 132651 points

 initial charge density was supplied:
 charge density of overlapping atoms calculated
 number of electron      42.0000000 magnetization 
 keeping initial charge density in first step


--------------------------------------------------------------------------------------------------------


 Maximum index for augmentation-charges          173 (set IRDMAX)


--------------------------------------------------------------------------------------------------------


 First call to EWALD:  gamma=   0.115
 Maximum number of real-space cells 3x 3x 3
 Maximum number of reciprocal cells 3x 3x 3

    FEWALD:  cpu time      0.0009: real time      0.0009


--------------------------------------- Iteration      1(   1)  ---------------------------------------


    POTLOK:  cpu time      0.2536: real time      0.2536
    SETDIJ:  cpu time      0.0014: real time      0.0098
     EDDAV:  cpu time      0.5489: real time      0.5489
       DOS:  cpu time      0.3894: real time      0.3894
    --------------------------------------------
      LOOP:  cpu time      1.1933: real time      1.2018

 eigenvalue-minimisations  :    80
 total energy-change (2. order) : 0.2955936E+03  (-0.1055361E+04)
 number of electron      42.0000000 magnetization 
 augmentation part       42.0000000 magnetization 

 Free energy of the ion-electron system (eV)
  ---------------------------------------------------
  alpha Z        PSCENC =         2.15216506
  Ewald energy   TEWEN  =      2553.42542172
  -Hartree energ DENC   =     -3493.34953091
  -exchange      EXHF   =         0.00000000
  -V(xc)+E(xc)   XCENC  =       131.24154545
  PAW double counting   =       983.79330320     -989.05002801
  entropy T*S    EENTRO =        -0.00580529
  eigenvalues    EBANDS =      -299.28669274
  atomic energy  EATOM  =      1406.67326350
  Solvation  Ediel_sol  =         0.00000000
  ---------------------------------------------------
  free energy    TOTEN  =       295.59364198 eV

  energy without entropy =      295.59944727  energy(sigma->0) =      295.59654462


--------------------------------------------------------------------------------------------------------




--------------------------------------- Iteration      1(   2)  ---------------------------------------


     EDDAV:  cpu time      0.4950: real time      0.4951
       DOS:  cpu time      0.0001: real time      0.0001
    --------------------------------------------
      LOOP:  cpu time      0.4951: real time      0.4951

 eigenvalue-minimisations  :    90
 total energy-change (2. order) :-0.2475798E+03  (-0.2290731E+03)
 number of electron      42.0000000 magnetization 
 augmentation part       42.0000000 magnetization 

 Free energy of the ion-electron system (eV)
  ---------------------------------------------------
  alpha Z        PSCENC =         2.15216506
  Ewald energy   TEWEN  =      2553.42542172
  -Hartree energ DENC   =     -3493.34953091
  -exchange      EXHF   =         0.00000000
  -V(xc)+E(xc)   XCENC  =       131.24154545
  PAW double counting   =       983.79330320     -989.05002801
  entropy T*S    EENTRO =        -0.00000000
  eigenvalues    EBANDS =      -546.87229872
  atomic energy  EATOM  =      1406.67326350
  Solvation  Ediel_sol  =         0.00000000
  ---------------------------------------------------
  free energy    TOTEN  =        48.01384129 eV

  energy without entropy =       48.01384129  energy(sigma->0) =       48.01384129


--------------------------------------------------------------------------------------------------------




--------------------------------------- Iteration      1(   3)  ---------------------------------------


     EDDAV:  cpu time      0.4020: real time      0.4021
       DOS:  cpu time      0.0001: real time      0.0001
    --------------------------------------------
      LOOP:  cpu time      0.4021: real time      0.4021

 eigenvalue-minimisations  :    70
 total energy-change (2. order) :-0.1435038E+03  (-0.1430203E+03)
 number of electron      42.0000000 magnetization 
 augmentation part       42.0000000 magnetization 

 Free energy of the ion-electron system (eV)
  ---------------------------------------------------
  alpha Z        PSCENC =         2.15216506
  Ewald energy   TEWEN  =      2553.42542172
  -Hartree energ DENC   =     -3493.34953091
  -exchange      EXHF   =         0.00000000
  -V(xc)+E(xc)   XCENC  =       131.24154545
  PAW double counting   =       983.79330320     -989.05002801
  entropy T*S    EENTRO =        -0.00000000
  eigenvalues    EBANDS =      -690.37611732
  atomic energy  EATOM  =      1406.67326350
  Solvation  Ediel_sol  =         0.00000000
  ---------------------------------------------------
  free energy    TOTEN  =       -95.48997732 eV

  energy without entropy =      -95.48997732  energy(sigma->0) =      -95.48997732


--------------------------------------------------------------------------------------------------------




--------------------------------------- Iteration      1(   4)  ---------------------------------------


     EDDAV:  cpu time      0.4445: real time      0.4445
       DOS:  cpu time      0.0001: real time      0.0001
    --------------------------------------------
      LOOP:  cpu time      0.4445: real time      0.4446

 eigenvalue-minimisations  :    80
 total energy-change (2. order) :-0.1828678E+02  (-0.1823422E+02)
 number of electron      42.0000000 magnetization 
 augmentation part       42.0000000 magnetization 

 Free energy of the ion-electron system (eV)
  ---------------------------------------------------
  alpha Z        PSCENC =         2.15216506
  Ewald energy   TEWEN  =      2553.42542172
  -Hartree energ DENC   =     -3493.34953091
  -exchange      EXHF   =         0.00000000
  -V(xc)+E(xc)   XCENC  =       131.24154545
  PAW double counting   =       983.79330320     -989.05002801
  entropy T*S    EENTRO =        -0.00000000
  eigenvalues    EBANDS =      -708.66289582
  atomic energy  EATOM  =      1406.67326350
  Solvation  Ediel_sol  =         0.00000000
  ---------------------------------------------------
  free energy    TOTEN  =      -113.77675582 eV

  energy without entropy =     -113.77675582  energy(sigma->0) =     -113.77675582


--------------------------------------------------------------------------------------------------------




--------------------------------------- Iteration      1(   5)  ---------------------------------------


     EDDAV:  cpu time      0.4446: real time      0.4446
       DOS:  cpu time      0.0001: real time      0.0001
    CHARGE:  cpu time      0.0487: real time      0.0487
    MIXING:  cpu time      0.0106: real time      0.0106
    --------------------------------------------
      LOOP:  cpu time      0.5040: real time      0.5041

 eigenvalue-minimisations  :    80
 total energy-change (2. order) :-0.3075505E+00  (-0.3047346E+00)
 number of electron      41.9999992 magnetization 
 augmentation part        1.2007221 magnetization 

 Broyden mixing:
  rms(total) = 0.16729E+01    rms(broyden)= 0.16724E+01
  rms(prec ) = 0.19323E+01
  weight for this iteration     100.00

 Free energy of the ion-electron system (eV)
  ---------------------------------------------------
  alpha Z        PSCENC =         2.15216506
  Ewald energy   TEWEN  =      2553.42542172
  -Hartree energ DENC   =     -3493.34953091
  -exchange      EXHF   =         0.00000000
  -V(xc)+E(xc)   XCENC  =       131.24154545
  PAW double counting   =       983.79330320     -989.05002801
  entropy T*S    EENTRO =        -0.00000000
  eigenvalues    EBANDS =      -708.97044635
  atomic energy  EATOM  =      1406.67326350
  Solvation  Ediel_sol  =         0.00000000
  ---------------------------------------------------
  free energy    TOTEN  =      -114.08430634 eV

  energy without entropy =     -114.08430634  energy(sigma->0) =     -114.08430634


--------------------------------------------------------------------------------------------------------




--------------------------------------- Iteration      1(   6)  ---------------------------------------


    POTLOK:  cpu time      0.2370: real time      0.2370
    SETDIJ:  cpu time      0.0029: real time      0.0029
    EDDIAG:  cpu time      0.0655: real time      0.0655
  RMM-DIIS:  cpu time      0.4572: real time      0.4572
    ORTHCH:  cpu time      0.0031: real time      0.0031
       DOS:  cpu time      0.0001: real time      0.0001
    CHARGE:  cpu time      0.0465: real time      0.0465
    MIXING:  cpu time      0.0110: real time      0.0110
    --------------------------------------------
      LOOP:  cpu time      0.8232: real time      0.8233

 eigenvalue-minimisations  :    72
 total energy-change (2. order) : 0.8198018E+01  (-0.1088767E+01)
 number of electron      41.9999996 magnetization 
 augmentation part        1.1081969 magnetization 

 Broyden mixing:
  rms(total) = 0.91554E+00    rms(broyden)= 0.91543E+00
  rms(prec ) = 0.10394E+01
  weight for this iteration     100.00

 eigenvalues of (default mixing * dielectric matrix)
  average eigenvalue GAMMA=   1.6524
  1.6524

 Free energy of the ion-electron system (eV)
  ---------------------------------------------------
  alpha Z        PSCENC =         2.15216506
  Ewald energy   TEWEN  =      2553.42542172
  -Hartree energ DENC   =     -3575.34798148
  -exchange      EXHF   =         0.00000000
  -V(xc)+E(xc)   XCENC  =       135.27941287
  PAW double counting   =      1764.02481263    -1770.06823656
  entropy T*S    EENTRO =        -0.00000000
  eigenvalues    EBANDS =      -622.02514637
  atomic energy  EATOM  =      1406.67326350
  Solvation  Ediel_sol  =         0.00000000
  ---------------------------------------------------
  free energy    TOTEN  =      -105.88628863 eV

  energy without entropy =     -105.88628863  energy(sigma->0) =     -105.88628863


--------------------------------------------------------------------------------------------------------




--------------------------------------- Iteration      1(   7)  ---------------------------------------


    POTLOK:  cpu time      0.2323: real time      0.2323
    SETDIJ:  cpu time      0.0031: real time      0.0031
    EDDIAG:  cpu time      0.0647: real time      0.0647
  RMM-DIIS:  cpu time      0.4554: real time      0.4554
    ORTHCH:  cpu time      0.0031: real time      0.0031
       DOS:  cpu time      0.0001: real time      0.0001
    CHARGE:  cpu time      0.0468: real time      0.0468
    MIXING:  cpu time      0.0117: real time      0.0117
    --------------------------------------------
      LOOP:  cpu time      0.8171: real time      0.8172

 eigenvalue-minimisations  :    74
 total energy-change (2. order) : 0.2031318E+01  (-0.1020587E+01)
 number of electron      41.9999997 magnetization 
 augmentation part        1.0590746 magnetization 

 Broyden mixing:
  rms(total) = 0.39701E+00    rms(broyden)= 0.39680E+00
  rms(prec ) = 0.43446E+00
  weight for this iteration     100.00

 eigenvalues of (default mixing * dielectric matrix)
  average eigenvalue GAMMA=   1.4067
  0.9367  1.8768

 Free energy of the ion-electron system (eV)
  ---------------------------------------------------
  alpha Z        PSCENC =         2.15216506
  Ewald energy   TEWEN  =      2553.42542172
  -Hartree energ DENC   =     -3647.97894463
  -exchange      EXHF   =         0.00000000
  -V(xc)+E(xc)   XCENC  =       138.93965614
  PAW double counting   =      2783.10583503    -2789.62287298
  entropy T*S    EENTRO =        -0.00000000
  eigenvalues    EBANDS =      -550.54949440
  atomic energy  EATOM  =      1406.67326350
  Solvation  Ediel_sol  =         0.00000000
  ---------------------------------------------------
  free energy    TOTEN  =      -103.85497056 eV

  energy without entropy =     -103.85497056  energy(sigma->0) =     -103.85497056


--------------------------------------------------------------------------------------------------------




--------------------------------------- Iteration      1(   8)  ---------------------------------------


    POTLOK:  cpu time      0.2398: real time      0.2400
    SETDIJ:  cpu time      0.0031: real time      0.0031
    EDDIAG:  cpu time      0.0654: real time      0.0654
  RMM-DIIS:  cpu time      0.4702: real time      0.4702
    ORTHCH:  cpu time      0.0034: real time      0.0034
       DOS:  cpu time      0.0001: real time      0.0001
    CHARGE:  cpu time      0.0447: real time      0.0447
    MIXING:  cpu time      0.0104: real time      0.0104
    --------------------------------------------
      LOOP:  cpu time      0.8372: real time      0.8374

 eigenvalue-minimisations  :    77
 total energy-change (2. order) : 0.1824731E+00  (-0.7906807E-01)
 number of electron      41.9999998 magnetization 
 augmentation part        1.0440323 magnetization 

 Broyden mixing:
  rms(total) = 0.24135E+00    rms(broyden)= 0.24131E+00
  rms(prec ) = 0.26532E+00
  weight for this iteration     100.00

 eigenvalues of (default mixing * dielectric matrix)
  average eigenvalue GAMMA=   1.7867
  2.7300  1.8419  0.7883

 Free energy of the ion-electron system (eV)
  ---------------------------------------------------
  alpha Z        PSCENC =         2.15216506
  Ewald energy   TEWEN  =      2553.42542172
  -Hartree energ DENC   =     -3660.01151426
  -exchange      EXHF   =         0.00000000
  -V(xc)+E(xc)   XCENC  =       139.73542620
  PAW double counting   =      3116.34818295    -3122.82538621
  entropy T*S    EENTRO =        -0.00000000
  eigenvalues    EBANDS =      -539.17005637
  atomic energy  EATOM  =      1406.67326350
  Solvation  Ediel_sol  =         0.00000000
  ---------------------------------------------------
  free energy    TOTEN  =      -103.67249742 eV

  energy without entropy =     -103.67249742  energy(sigma->0) =     -103.67249742


--------------------------------------------------------------------------------------------------------




--------------------------------------- Iteration      1(   9)  ---------------------------------------


    POTLOK:  cpu time      0.2349: real time      0.2350
    SETDIJ:  cpu time      0.0030: real time      0.0030
    EDDIAG:  cpu time      0.0659: real time      0.0659
  RMM-DIIS:  cpu time      0.4763: real time      0.4763
    ORTHCH:  cpu time      0.0035: real time      0.0035
       DOS:  cpu time      0.0001: real time      0.0001
    CHARGE:  cpu time      0.0478: real time      0.0478
    MIXING:  cpu time      0.0113: real time      0.0113
    --------------------------------------------
      LOOP:  cpu time      0.8429: real time      0.8430

 eigenvalue-minimisations  :    78
 total energy-change (2. order) : 0.1065823E+00  (-0.4683247E-01)
 number of electron      41.9999997 magnetization 
 augmentation part        1.0407096 magnetization 

 Broyden mixing:
  rms(total) = 0.68998E-01    rms(broyden)= 0.68984E-01
  rms(prec ) = 0.90580E-01
  weight for this iteration     100.00

 eigenvalues of (default mixing * dielectric matrix)
  average eigenvalue GAMMA=   1.4764
  2.2729  1.7944  0.8941  0.9441

 Free energy of the ion-electron system (eV)
  ---------------------------------------------------
  alpha Z        PSCENC =         2.15216506
  Ewald energy   TEWEN  =      2553.42542172
  -Hartree energ DENC   =     -3670.32126057
  -exchange      EXHF   =         0.00000000
  -V(xc)+E(xc)   XCENC  =       140.42308288
  PAW double counting   =      3542.55374518    -3548.84014267
  entropy T*S    EENTRO =        -0.00000000
  eigenvalues    EBANDS =      -529.63219024
  atomic energy  EATOM  =      1406.67326350
  Solvation  Ediel_sol  =         0.00000000
  ---------------------------------------------------
  free energy    TOTEN  =      -103.56591514 eV

  energy without entropy =     -103.56591514  energy(sigma->0) =     -103.56591514


--------------------------------------------------------------------------------------------------------




--------------------------------------- Iteration      1(  10)  ---------------------------------------


    POTLOK:  cpu time      0.2346: real time      0.2347
    SETDIJ:  cpu time      0.0032: real time      0.0032
    EDDIAG:  cpu time      0.0650: real time      0.0650
  RMM-DIIS:  cpu time      0.5334: real time      0.5334
    ORTHCH:  cpu time      0.0031: real time      0.0031
       DOS:  cpu time      0.0001: real time      0.0001
    CHARGE:  cpu time      0.0456: real time      0.0456
    MIXING:  cpu time      0.0118: real time      0.0118
    --------------------------------------------
      LOOP:  cpu time      0.8968: real time      0.8969

 eigenvalue-minimisations  :    84
 total energy-change (2. order) : 0.1282638E-02  (-0.8823975E-02)
 number of electron      41.9999997 magnetization 
 augmentation part        1.0385146 magnetization 

 Broyden mixing:
  rms(total) = 0.32907E-01    rms(broyden)= 0.32898E-01
  rms(prec ) = 0.55651E-01
  weight for this iteration     100.00

 eigenvalues of (default mixing * dielectric matrix)
  average eigenvalue GAMMA=   1.4967
  2.1066  2.1066  1.4982  0.8310  0.9410

 Free energy of the ion-electron system (eV)
  ---------------------------------------------------
  alpha Z        PSCENC =         2.15216506
  Ewald energy   TEWEN  =      2553.42542172
  -Hartree energ DENC   =     -3672.44016991
  -exchange      EXHF   =         0.00000000
  -V(xc)+E(xc)   XCENC  =       140.39168204
  PAW double counting   =      3484.82397985    -3491.14411881
  entropy T*S    EENTRO =        -0.00000000
  eigenvalues    EBANDS =      -527.44685596
  atomic energy  EATOM  =      1406.67326350
  Solvation  Ediel_sol  =         0.00000000
  ---------------------------------------------------
  free energy    TOTEN  =      -103.56463251 eV

  energy without entropy =     -103.56463251  energy(sigma->0) =     -103.56463251


--------------------------------------------------------------------------------------------------------




--------------------------------------- Iteration      1(  11)  ---------------------------------------


    POTLOK:  cpu time      0.2370: real time      0.2371
    SETDIJ:  cpu time      0.0030: real time      0.0030
    EDDIAG:  cpu time      0.0674: real time      0.0674
  RMM-DIIS:  cpu time      0.4835: real time      0.4835
    ORTHCH:  cpu time      0.0032: real time      0.0032
       DOS:  cpu time      0.0001: real time      0.0001
    CHARGE:  cpu time      0.0468: real time      0.0468
    MIXING:  cpu time      0.0123: real time      0.0123
    --------------------------------------------
      LOOP:  cpu time      0.8533: real time      0.8534

 eigenvalue-minimisations  :    78
 total energy-change (2. order) :-0.1072037E-01  (-0.9684556E-02)
 number of electron      41.9999997 magnetization 
 augmentation part        1.0378050 magnetization 

 Broyden mixing:
  rms(total) = 0.40725E-01    rms(broyden)= 0.40717E-01
  rms(prec ) = 0.52111E-01
  weight for this iteration     100.00

 eigenvalues of (default mixing * dielectric matrix)
  average eigenvalue GAMMA=   1.5005
  2.4067  2.4067  1.2743  1.2743  0.8516  0.7896

 Free energy of the ion-electron system (eV)
  ---------------------------------------------------
  alpha Z        PSCENC =         2.15216506
  Ewald energy   TEWEN  =      2553.42542172
  -Hartree energ DENC   =     -3679.45289715
  -exchange      EXHF   =         0.00000000
  -V(xc)+E(xc)   XCENC  =       140.39661735
  PAW double counting   =      3432.67642003    -3438.99728036
  entropy T*S    EENTRO =        -0.00000000
  eigenvalues    EBANDS =      -520.44906301
  atomic energy  EATOM  =      1406.67326350
  Solvation  Ediel_sol  =         0.00000000
  ---------------------------------------------------
  free energy    TOTEN  =      -103.57535287 eV

  energy without entropy =     -103.57535287  energy(sigma->0) =     -103.57535287


--------------------------------------------------------------------------------------------------------




--------------------------------------- Iteration      1(  12)  ---------------------------------------


    POTLOK:  cpu time      0.2428: real time      0.2428
    SETDIJ:  cpu time      0.0031: real time      0.0031
    EDDIAG:  cpu time      0.0650: real time      0.0650
  RMM-DIIS:  cpu time      0.5014: real time      0.5015
    ORTHCH:  cpu time      0.0027: real time      0.0027
       DOS:  cpu time      0.0001: real time      0.0001
    CHARGE:  cpu time      0.0445: real time      0.0670
    MIXING:  cpu time      0.0096: real time      0.0144
    --------------------------------------------
      LOOP:  cpu time      0.8692: real time      0.8967

 eigenvalue-minimisations  :    80
 total energy-change (2. order) : 0.4141069E-02  (-0.9918736E-03)
 number of electron      41.9999998 magnetization 
 augmentation part        1.0364282 magnetization 

 Broyden mixing:
  rms(total) = 0.26167E-01    rms(broyden)= 0.26166E-01
  rms(prec ) = 0.35925E-01
  weight for this iteration     100.00

 eigenvalues of (default mixing * dielectric matrix)
  average eigenvalue GAMMA=   1.5240
  2.4744  2.4744  1.4763  1.4763  0.8067  0.9799  0.9799

 Free energy of the ion-electron system (eV)
  ---------------------------------------------------
  alpha Z        PSCENC =         2.15216506
  Ewald energy   TEWEN  =      2553.42542172
  -Hartree energ DENC   =     -3681.05579135
  -exchange      EXHF   =         0.00000000
  -V(xc)+E(xc)   XCENC  =       140.45754356
  PAW double counting   =      3457.79426400    -3464.10071832
  entropy T*S    EENTRO =        -0.00000000
  eigenvalues    EBANDS =      -518.91735997
  atomic energy  EATOM  =      1406.67326350
  Solvation  Ediel_sol  =         0.00000000
  ---------------------------------------------------
  free energy    TOTEN  =      -103.57121180 eV

  energy without entropy =     -103.57121180  energy(sigma->0) =     -103.57121180


--------------------------------------------------------------------------------------------------------




--------------------------------------- Iteration      1(  13)  ---------------------------------------


    POTLOK:  cpu time      0.2414: real time      0.2480
    SETDIJ:  cpu time      0.0013: real time      0.0013
    EDDIAG:  cpu time      0.0649: real time      0.0650
  RMM-DIIS:  cpu time      0.4649: real time      0.4651
    ORTHCH:  cpu time      0.0024: real time      0.0024
       DOS:  cpu time      0.0001: real time      0.0001
    CHARGE:  cpu time      0.0535: real time      0.0535
    MIXING:  cpu time      0.0100: real time      0.0100
    --------------------------------------------
      LOOP:  cpu time      0.8385: real time      0.8454

 eigenvalue-minimisations  :    78
 total energy-change (2. order) :-0.5922876E-02  (-0.2038401E-02)
 number of electron      41.9999998 magnetization 
 augmentation part        1.0360411 magnetization 

 Broyden mixing:
  rms(total) = 0.10106E-01    rms(broyden)= 0.10102E-01
  rms(prec ) = 0.16291E-01
  weight for this iteration     100.00

 eigenvalues of (default mixing * dielectric matrix)
  average eigenvalue GAMMA=   1.6880
  3.8959  2.5118  1.8419  1.3095  1.3095  0.7987  0.9182  0.9182

 Free energy of the ion-electron system (eV)
  ---------------------------------------------------
  alpha Z        PSCENC =         2.15216506
  Ewald energy   TEWEN  =      2553.42542172
  -Hartree energ DENC   =     -3683.16343558
  -exchange      EXHF   =         0.00000000
  -V(xc)+E(xc)   XCENC  =       140.48289650
  PAW double counting   =      3449.08118413    -3455.37565573
  entropy T*S    EENTRO =        -0.00000000
  eigenvalues    EBANDS =      -516.85297427
  atomic energy  EATOM  =      1406.67326350
  Solvation  Ediel_sol  =         0.00000000
  ---------------------------------------------------
  free energy    TOTEN  =      -103.57713468 eV

  energy without entropy =     -103.57713468  energy(sigma->0) =     -103.57713468


--------------------------------------------------------------------------------------------------------




--------------------------------------- Iteration      1(  14)  ---------------------------------------


    POTLOK:  cpu time      0.2364: real time      0.2365
    SETDIJ:  cpu time      0.0013: real time      0.0013
    EDDIAG:  cpu time      0.0641: real time      0.0641
  RMM-DIIS:  cpu time      0.4536: real time      0.4538
    ORTHCH:  cpu time      0.0023: real time      0.0023
       DOS:  cpu time      0.0001: real time      0.0001
    CHARGE:  cpu time      0.0490: real time      0.0501
    MIXING:  cpu time      0.0099: real time      0.0099
    --------------------------------------------
      LOOP:  cpu time      0.8167: real time      0.8181

 eigenvalue-minimisations  :    78
 total energy-change (2. order) :-0.3059716E-02  (-0.4331327E-03)
 number of electron      41.9999998 magnetization 
 augmentation part        1.0355460 magnetization 

 Broyden mixing:
  rms(total) = 0.75106E-02    rms(broyden)= 0.75088E-02
  rms(prec ) = 0.11291E-01
  weight for this iteration     100.00

 eigenvalues of (default mixing * dielectric matrix)
  average eigenvalue GAMMA=   1.8134
  4.4303  2.4406  2.4406  1.6338  1.3516  1.3516  0.8038  0.9343  0.9343

 Free energy of the ion-electron system (eV)
  ---------------------------------------------------
  alpha Z        PSCENC =         2.15216506
  Ewald energy   TEWEN  =      2553.42542172
  -Hartree energ DENC   =     -3685.67858539
  -exchange      EXHF   =         0.00000000
  -V(xc)+E(xc)   XCENC  =       140.53583474
  PAW double counting   =      3452.39039867    -3458.69001156
  entropy T*S    EENTRO =        -0.00000000
  eigenvalues    EBANDS =      -514.38868113
  atomic energy  EATOM  =      1406.67326350
  Solvation  Ediel_sol  =         0.00000000
  ---------------------------------------------------
  free energy    TOTEN  =      -103.58019439 eV

  energy without entropy =     -103.58019439  energy(sigma->0) =     -103.58019439


--------------------------------------------------------------------------------------------------------




--------------------------------------- Iteration      1(  15)  ---------------------------------------


    POTLOK:  cpu time      0.2239: real time      0.2240
    SETDIJ:  cpu time      0.0013: real time      0.0013
    EDDIAG:  cpu time      0.0620: real time      0.0621
  RMM-DIIS:  cpu time      0.4530: real time      0.4531
    ORTHCH:  cpu time      0.0023: real time      0.0024
       DOS:  cpu time      0.0001: real time      0.0001
    CHARGE:  cpu time      0.0502: real time      0.0504
    MIXING:  cpu time      0.0102: real time      0.0102
    --------------------------------------------
      LOOP:  cpu time      0.8031: real time      0.8036

 eigenvalue-minimisations  :    79
 total energy-change (2. order) :-0.1043796E-01  (-0.4234929E-03)
 number of electron      41.9999998 magnetization 
 augmentation part        1.0347295 magnetization 

 Broyden mixing:
  rms(total) = 0.43003E-02    rms(broyden)= 0.42992E-02
  rms(prec ) = 0.62785E-02
  weight for this iteration     100.00

 eigenvalues of (default mixing * dielectric matrix)
  average eigenvalue GAMMA=   1.8969
  5.8348  2.7136  2.0943  2.0943  1.3186  1.3186  0.8153  0.9229  0.9229  0.9337

 Free energy of the ion-electron system (eV)
  ---------------------------------------------------
  alpha Z        PSCENC =         2.15216506
  Ewald energy   TEWEN  =      2553.42542172
  -Hartree energ DENC   =     -3687.32677725
  -exchange      EXHF   =         0.00000000
  -V(xc)+E(xc)   XCENC  =       140.55690381
  PAW double counting   =      3455.19748050    -3461.50413434
  entropy T*S    EENTRO =        -0.00000000
  eigenvalues    EBANDS =      -512.76495536
  atomic energy  EATOM  =      1406.67326350
  Solvation  Ediel_sol  =         0.00000000
  ---------------------------------------------------
  free energy    TOTEN  =      -103.59063235 eV

  energy without entropy =     -103.59063235  energy(sigma->0) =     -103.59063235


--------------------------------------------------------------------------------------------------------




--------------------------------------- Iteration      1(  16)  ---------------------------------------


    POTLOK:  cpu time      0.2265: real time      0.2266
    SETDIJ:  cpu time      0.0013: real time      0.0013
    EDDIAG:  cpu time      0.0622: real time      0.0622
  RMM-DIIS:  cpu time      0.4095: real time      0.4096
    ORTHCH:  cpu time      0.0023: real time      0.0023
       DOS:  cpu time      0.0001: real time      0.0001
    CHARGE:  cpu time      0.0506: real time      0.0507
    MIXING:  cpu time      0.0106: real time      0.0106
    --------------------------------------------
      LOOP:  cpu time      0.7630: real time      0.7635

 eigenvalue-minimisations  :    69
 total energy-change (2. order) :-0.2816368E-02  (-0.7791924E-04)
 number of electron      41.9999998 magnetization 
 augmentation part        1.0346229 magnetization 

 Broyden mixing:
  rms(total) = 0.31082E-02    rms(broyden)= 0.31079E-02
  rms(prec ) = 0.45240E-02
  weight for this iteration     100.00

 eigenvalues of (default mixing * dielectric matrix)
  average eigenvalue GAMMA=   2.0666
  6.9470  3.2564  2.1905  2.1905  1.7544  1.3521  1.3521  0.9810  0.9810  0.8071
  0.9207

 Free energy of the ion-electron system (eV)
  ---------------------------------------------------
  alpha Z        PSCENC =         2.15216506
  Ewald energy   TEWEN  =      2553.42542172
  -Hartree energ DENC   =     -3687.14859659
  -exchange      EXHF   =         0.00000000
  -V(xc)+E(xc)   XCENC  =       140.53792193
  PAW double counting   =      3452.32684068    -3458.63106272
  entropy T*S    EENTRO =        -0.00000000
  eigenvalues    EBANDS =      -512.92940231
  atomic energy  EATOM  =      1406.67326350
  Solvation  Ediel_sol  =         0.00000000
  ---------------------------------------------------
  free energy    TOTEN  =      -103.59344872 eV

  energy without entropy =     -103.59344872  energy(sigma->0) =     -103.59344872


--------------------------------------------------------------------------------------------------------




--------------------------------------- Iteration      1(  17)  ---------------------------------------


    POTLOK:  cpu time      0.2307: real time      0.2307
    SETDIJ:  cpu time      0.0013: real time      0.0013
    EDDIAG:  cpu time      0.0675: real time      0.0675
  RMM-DIIS:  cpu time      0.4490: real time      0.4499
    ORTHCH:  cpu time      0.0023: real time      0.0024
       DOS:  cpu time      0.0001: real time      0.0001
    CHARGE:  cpu time      0.0500: real time      0.0501
    MIXING:  cpu time      0.0114: real time      0.0114
    --------------------------------------------
      LOOP:  cpu time      0.8124: real time      0.8135

 eigenvalue-minimisations  :    75
 total energy-change (2. order) :-0.3860162E-02  (-0.1067318E-03)
 number of electron      41.9999998 magnetization 
 augmentation part        1.0347883 magnetization 

 Broyden mixing:
  rms(total) = 0.24037E-02    rms(broyden)= 0.24034E-02
  rms(prec ) = 0.29426E-02
  weight for this iteration     100.00

 eigenvalues of (default mixing * dielectric matrix)
  average eigenvalue GAMMA=   2.0380
  7.3922  3.5715  2.4075  1.8431  1.8431  1.3374  1.3374  1.1373  0.8079  0.9214
  0.9214  0.9356

 Free energy of the ion-electron system (eV)
  ---------------------------------------------------
  alpha Z        PSCENC =         2.15216506
  Ewald energy   TEWEN  =      2553.42542172
  -Hartree energ DENC   =     -3686.71637345
  -exchange      EXHF   =         0.00000000
  -V(xc)+E(xc)   XCENC  =       140.51272305
  PAW double counting   =      3453.23958091    -3459.53968842
  entropy T*S    EENTRO =        -0.00000000
  eigenvalues    EBANDS =      -513.34440125
  atomic energy  EATOM  =      1406.67326350
  Solvation  Ediel_sol  =         0.00000000
  ---------------------------------------------------
  free energy    TOTEN  =      -103.59730888 eV

  energy without entropy =     -103.59730888  energy(sigma->0) =     -103.59730888


--------------------------------------------------------------------------------------------------------




--------------------------------------- Iteration      1(  18)  ---------------------------------------


    POTLOK:  cpu time      0.2296: real time      0.2299
    SETDIJ:  cpu time      0.0013: real time      0.0013
    EDDIAG:  cpu time      0.0671: real time      0.0672
  RMM-DIIS:  cpu time      0.3694: real time      0.3696
    ORTHCH:  cpu time      0.0025: real time      0.0026
       DOS:  cpu time      0.0001: real time      0.0001
    CHARGE:  cpu time      0.0528: real time      0.0528
    MIXING:  cpu time      0.0115: real time      0.0115
    --------------------------------------------
      LOOP:  cpu time      0.7344: real time      0.7350

 eigenvalue-minimisations  :    60
 total energy-change (2. order) :-0.3709388E-03  (-0.1713319E-04)
 number of electron      41.9999998 magnetization 
 augmentation part        1.0347572 magnetization 

 Broyden mixing:
  rms(total) = 0.15095E-02    rms(broyden)= 0.15094E-02
  rms(prec ) = 0.19070E-02
  weight for this iteration     100.00

 eigenvalues of (default mixing * dielectric matrix)
  average eigenvalue GAMMA=   2.1226
  7.6882  3.8304  2.3890  2.3890  1.9731  1.9731  1.3527  1.3527  1.0024  1.0024
  0.8045  0.9179  0.9179

 Free energy of the ion-electron system (eV)
  ---------------------------------------------------
  alpha Z        PSCENC =         2.15216506
  Ewald energy   TEWEN  =      2553.42542172
  -Hartree energ DENC   =     -3686.83209838
  -exchange      EXHF   =         0.00000000
  -V(xc)+E(xc)   XCENC  =       140.51481261
  PAW double counting   =      3452.92810304    -3459.22934809
  entropy T*S    EENTRO =        -0.00000000
  eigenvalues    EBANDS =      -513.22999928
  atomic energy  EATOM  =      1406.67326350
  Solvation  Ediel_sol  =         0.00000000
  ---------------------------------------------------
  free energy    TOTEN  =      -103.59767982 eV

  energy without entropy =     -103.59767982  energy(sigma->0) =     -103.59767982


--------------------------------------------------------------------------------------------------------




--------------------------------------- Iteration      1(  19)  ---------------------------------------


    POTLOK:  cpu time      0.2278: real time      0.2280
    SETDIJ:  cpu time      0.0013: real time      0.0014
    EDDIAG:  cpu time      0.0680: real time      0.0681
  RMM-DIIS:  cpu time      0.3659: real time      0.3662
    ORTHCH:  cpu time      0.0024: real time      0.0024
       DOS:  cpu time      0.0001: real time      0.0001
    CHARGE:  cpu time      0.0511: real time      0.0512
    MIXING:  cpu time      0.0122: real time      0.0122
    --------------------------------------------
      LOOP:  cpu time      0.7289: real time      0.7295

 eigenvalue-minimisations  :    62
 total energy-change (2. order) :-0.8477419E-03  (-0.2281314E-04)
 number of electron      41.9999998 magnetization 
 augmentation part        1.0346660 magnetization 

 Broyden mixing:
  rms(total) = 0.17971E-02    rms(broyden)= 0.17969E-02
  rms(prec ) = 0.20793E-02
  weight for this iteration     100.00

 eigenvalues of (default mixing * dielectric matrix)
  average eigenvalue GAMMA=   2.1554
  8.4130  4.8732  2.5260  2.2959  1.9406  1.8123  1.3272  1.3272  1.0710  1.0710
  0.8067  0.9077  0.9077  0.8959

 Free energy of the ion-electron system (eV)
  ---------------------------------------------------
  alpha Z        PSCENC =         2.15216506
  Ewald energy   TEWEN  =      2553.42542172
  -Hartree energ DENC   =     -3686.87094426
  -exchange      EXHF   =         0.00000000
  -V(xc)+E(xc)   XCENC  =       140.51265559
  PAW double counting   =      3451.16934651    -3457.47214226
  entropy T*S    EENTRO =        -0.00000000
  eigenvalues    EBANDS =      -513.18829342
  atomic energy  EATOM  =      1406.67326350
  Solvation  Ediel_sol  =         0.00000000
  ---------------------------------------------------
  free energy    TOTEN  =      -103.59852756 eV

  energy without entropy =     -103.59852756  energy(sigma->0) =     -103.59852756


--------------------------------------------------------------------------------------------------------




--------------------------------------- Iteration      1(  20)  ---------------------------------------


    POTLOK:  cpu time      0.2260: real time      0.2271
    SETDIJ:  cpu time      0.0013: real time      0.0014
    EDDIAG:  cpu time      0.0673: real time      0.0673
  RMM-DIIS:  cpu time      0.3462: real time      0.3464
    ORTHCH:  cpu time      0.0025: real time      0.0025
       DOS:  cpu time      0.0001: real time      0.0001
    --------------------------------------------
      LOOP:  cpu time      0.6433: real time      0.6448

 eigenvalue-minimisations  :    56
 total energy-change (2. order) :-0.8728142E-04  (-0.4055624E-05)
 number of electron      41.9999998 magnetization 
 augmentation part        1.0346660 magnetization 

 Free energy of the ion-electron system (eV)
  ---------------------------------------------------
  alpha Z        PSCENC =         2.15216506
  Ewald energy   TEWEN  =      2553.42542172
  -Hartree energ DENC   =     -3686.82351298
  -exchange      EXHF   =         0.00000000
  -V(xc)+E(xc)   XCENC  =       140.51147586
  PAW double counting   =      3451.86222172    -3458.16404589
  entropy T*S    EENTRO =        -0.00000000
  eigenvalues    EBANDS =      -513.23560383
  atomic energy  EATOM  =      1406.67326350
  Solvation  Ediel_sol  =         0.00000000
  ---------------------------------------------------
  free energy    TOTEN  =      -103.59861484 eV

  energy without entropy =     -103.59861484  energy(sigma->0) =     -103.59861484


--------------------------------------------------------------------------------------------------------




 average (electrostatic) potential at core
  the test charge radii are     0.6991  0.5201  0.7089
  (the norm of the test charge is              1.0000)
       1 -58.7370       2 -58.7598       3 -59.0478       4 -58.8491       5 -58.9566
       6 -59.8285       7 -59.6583       8 -41.9980       9 -41.9777      10 -41.9564
      11 -42.0254      12 -42.0625      13 -42.0865      14 -41.9913      15 -41.9572
      16 -42.5398      17 -72.9205
 
 
 
 E-fermi :  -5.8503     XC(G=0):  -0.6439     alpha+bet : -0.2838

 Fermi energy:        -5.8502535753

 k-point     1 :       0.0000    0.0000    0.0000
  band No.  band energies     occupation 
      1     -22.2918      2.00000
      2     -21.1765      2.00000
      3     -19.0979      2.00000
      4     -18.7153      2.00000
      5     -15.9893      2.00000
      6     -15.4568      2.00000
      7     -13.0786      2.00000
      8     -12.9933      2.00000
      9     -11.7999      2.00000
     10     -10.9931      2.00000
     11     -10.5212      2.00000
     12     -10.3648      2.00000
     13      -9.8283      2.00000
     14      -9.6414      2.00000
     15      -8.7374      2.00000
     16      -8.5447      2.00000
     17      -8.2884      2.00000
     18      -7.9199      2.00000
     19      -7.5797      2.00000
     20      -7.4770      2.00000
     21      -6.1225      2.00000
     22      -0.9281      0.00000
     23      -0.5770      0.00000
     24      -0.1345      0.00000
     25      -0.0765      0.00000
     26      -0.0169      0.00000
     27       0.0440      0.00000
     28       0.1806      0.00000
     29       0.5746      0.00000
     30       0.7713      0.00000


--------------------------------------------------------------------------------------------------------


 soft charge-density along one line, spin component           1
         0         1         2         3         4         5         6         7         8         9
 total charge-density along one line
 
 pseudopotential strength for first ion, spin component:           1
 10.250  13.632  -0.000  -0.000   0.001  -0.001   0.000  -0.002
 13.632  18.128  -0.000  -0.000   0.001  -0.001   0.000  -0.002
 -0.000  -0.000  -4.381  -0.001  -0.000   8.568   0.001   0.000
 -0.000  -0.000  -0.001  -4.372   0.000   0.001   8.556  -0.000
  0.001   0.001  -0.000   0.000  -4.376   0.000  -0.000   8.561
 -0.001  -0.001   8.568   0.001   0.000 -18.897  -0.000   0.000
  0.000   0.000   0.001   8.556  -0.000  -0.000 -18.886   0.000
 -0.002  -0.002   0.000  -0.000   8.561   0.000   0.000 -18.888
 total augmentation occupancy for first ion, spin component:           1
  7.790  -3.375   0.383   0.031   0.012   0.062   0.005   0.009
 -3.375   1.507  -0.222  -0.016  -0.024  -0.034  -0.002  -0.008
  0.383  -0.222   1.896   0.061   0.003   0.178   0.009  -0.003
  0.031  -0.016   0.061   1.183  -0.039   0.009   0.072  -0.006
  0.012  -0.024   0.003  -0.039   1.664  -0.003  -0.006   0.147
  0.062  -0.034   0.178   0.009  -0.003   0.018   0.001  -0.001
  0.005  -0.002   0.009   0.072  -0.006   0.001   0.005  -0.001
  0.009  -0.008  -0.003  -0.006   0.147  -0.001  -0.001   0.014


------------------------ aborting loop because EDIFF is reached ----------------------------------------


    CHARGE:  cpu time      0.0527: real time      0.0527
    FORLOC:  cpu time      0.0225: real time      0.0225
    FORNL :  cpu time      0.0484: real time      0.0484
    STRESS:  cpu time      0.4204: real time      0.4205
    FORCOR:  cpu time      0.2263: real time      0.2264
    FORHAR:  cpu time      0.0788: real time      0.0789
    MIXING:  cpu time      0.0129: real time      0.0129
    OFIELD:  cpu time      0.0001: real time      0.0001

 ---------------------------------------------------------------------------------------------

         DFTD3 V3.0 Rev 1        
 IVDW         = 11
 DF pbe       
 parameters
 VDW_S6       =    1.0000
 VDW_S8       =    0.7220
 VDW_SR       =    1.2170
 rs18     =    1.0000
 alpha6   =   14.0000
 alpha8   =   16.0000
 k1-k3    =   16.0000    1.3333   -4.0000
 VDW_RADIUS   =   50.2022 A
 VDW_CNRADIUS =   21.1671 A
 Edisp (eV)   -0.19728

 E6    (eV) :    -0.0807
 E8    (eV) :    -0.1166
 % E8        : 59.10
    FORVDW:  cpu time      0.0103: real time      0.0103

  FORCE on cell =-STRESS in cart. coord.  units (eV):
  Direction    XX          YY          ZZ          XY          YZ          ZX
  --------------------------------------------------------------------------------------
  Alpha Z     2.15217     2.15217     2.15217
  Ewald    1568.98127  1240.73295  -256.28996   438.20587    17.49365   -70.45533
  Hartree  1762.72104  1505.51094   418.53817   305.77495    -7.23303   -65.82374
  E(xc)    -152.54197  -152.95142  -154.61060     0.62889     0.18496     0.03824
  Local   -3727.88243 -3149.75963  -587.09798  -730.39570    -5.76529   138.75976
  n-local   -62.11624   -61.12909   -60.69112    -1.64294    -0.54029    -0.54719
  augment    -0.61239    -0.64932    -0.63557     0.01107    -0.01232    -0.00009
  Kinetic   607.43135   614.22186   636.77691   -12.49740    -4.09570    -1.94636
  Fock        0.00000     0.00000     0.00000     0.00000     0.00000     0.00000
  vdW        -0.03072    -0.02884     0.01615    -0.01637     0.00193     0.00381
  -------------------------------------------------------------------------------------
  Total      -1.89792    -1.90038    -1.84181     0.06838     0.03392     0.02909
  in kB      -0.83222    -0.83329    -0.80761     0.02998     0.01487     0.01276
  external pressure =       -0.82 kB  Pullay stress =        0.00 kB


 VOLUME and BASIS-vectors are now :
 -----------------------------------------------------------------------------
  energy-cutoff  :      400.00
  volume of cell :     3653.87
      direct lattice vectors                 reciprocal lattice vectors
    15.402250290  0.000000000  0.000000000     0.064925578  0.000000000  0.000000000
     0.000000000 15.402250290  0.000000000     0.000000000  0.064925578  0.000000000
     0.000000000  0.000000000 15.402250290     0.000000000  0.000000000  0.064925578

  length of vectors
    15.402250290 15.402250290 15.402250290     0.064925578  0.064925578  0.064925578


 FORCES acting on ions
    electron-ion (+dipol)            ewald-force                    non-local-force                 convergence-correction
 -----------------------------------------------------------------------------------------------
   0.158E+03 0.117E+03 -.370E+01   -.158E+03 -.117E+03 0.378E+01   0.557E+00 0.400E+00 -.795E-01   0.111E-01 0.816E-03 -.320E-03
   0.173E+03 -.830E+02 -.263E+02   -.174E+03 0.829E+02 0.264E+02   0.881E+00 0.442E-01 -.143E+00   0.104E-01 0.110E-02 -.535E-03
   0.584E+02 -.158E+03 -.288E+02   -.590E+02 0.159E+03 0.291E+02   0.523E+00 -.837E+00 -.364E+00   -.405E-03 -.458E-02 0.738E-03
   0.108E+02 0.182E+03 0.218E+02   -.105E+02 -.182E+03 -.218E+02   -.272E+00 0.395E+00 -.399E-01   0.611E-02 0.926E-02 0.226E-02
   -.120E+03 0.105E+03 -.561E+02   0.121E+03 -.106E+03 0.567E+02   -.477E+00 0.125E+01 -.667E+00   -.869E-02 -.252E-02 -.110E-02
   -.447E+02 -.305E+02 0.861E+02   0.409E+02 0.278E+02 -.863E+02   0.379E+01 0.274E+01 0.321E+00   -.733E-02 -.633E-02 0.623E-02
   -.337E+02 -.227E+02 0.328E+02   0.310E+02 0.209E+02 -.332E+02   0.254E+01 0.168E+01 0.461E+00   -.152E-02 -.140E-02 0.615E-03
   0.709E+02 0.450E+02 -.218E+01   -.758E+02 -.480E+02 0.233E+01   0.482E+01 0.303E+01 -.149E+00   0.830E-03 -.946E-04 -.260E-04
   0.188E+01 0.762E+02 -.381E+02   -.189E+01 -.806E+02 0.413E+02   0.776E-02 0.442E+01 -.324E+01   0.601E-03 0.234E-02 -.881E-03
   -.108E+01 0.513E+02 0.674E+02   0.141E+01 -.533E+02 -.724E+02   -.323E+00 0.200E+01 0.500E+01   0.470E-03 0.161E-02 0.192E-02
   0.761E+02 -.344E+02 -.109E+02   -.812E+02 0.369E+02 0.116E+02   0.509E+01 -.244E+01 -.718E+00   0.937E-03 0.279E-03 0.785E-05
   -.319E+00 -.479E+02 -.705E+02   0.141E+01 0.500E+02 0.755E+02   -.108E+01 -.204E+01 -.496E+01   -.485E-03 -.129E-02 -.175E-02
   0.250E+02 -.741E+02 0.365E+02   -.261E+02 0.786E+02 -.396E+02   0.111E+01 -.443E+01 0.312E+01   0.340E-03 -.177E-02 0.104E-02
   -.704E+02 0.478E+02 0.145E+02   0.752E+02 -.503E+02 -.162E+02   -.472E+01 0.247E+01 0.169E+01   -.282E-02 0.872E-03 0.732E-03
   -.245E+02 0.112E+02 -.816E+02   0.250E+02 -.106E+02 0.871E+02   -.514E+00 -.644E+00 -.547E+01   -.113E-02 -.454E-03 -.273E-02
   -.886E+00 0.184E+01 0.889E+02   0.159E+00 -.257E+01 -.943E+02   0.723E+00 0.730E+00 0.543E+01   -.790E-03 -.792E-03 -.150E-03
   -.257E+03 -.172E+03 -.244E+02   0.291E+03 0.195E+03 0.301E+02   -.332E+02 -.221E+02 -.565E+01   0.253E-03 -.269E-03 0.203E-03
 -----------------------------------------------------------------------------------------------
   0.205E+02 0.133E+02 0.546E+01   -.568E-13 -.284E-13 -.142E-13   -.205E+02 -.133E+02 -.546E+01   0.791E-02 -.321E-02 0.625E-02
 
 
 POSITION                                       TOTAL-FORCE (eV/Angst)
 -----------------------------------------------------------------------------------
      5.33983      6.74030      8.67451         0.040330      0.016649     -0.004400
      5.26854      8.07337      8.78768         0.039843     -0.009118     -0.004974
      6.46420      8.98349      8.72798         0.001048     -0.050554     -0.013412
      6.63339      5.98970      8.51495        -0.001414      0.051340      0.020454
      7.85529      6.85810      8.83100        -0.040324      0.010684     -0.030045
      7.70631      8.24877      8.17386         0.003624      0.005701      0.045385
      8.91240      9.05347      8.34816        -0.123385     -0.083236     -0.023874
      4.42009      6.15055      8.70189        -0.025443     -0.015918     -0.004015
      6.63211      5.10432      9.17118        -0.001055     -0.021453      0.016553
      6.70406      5.58852      7.48726         0.002911     -0.008560     -0.027460
      4.29617      8.55297      8.92547        -0.022446      0.012037      0.002877
      6.69007      9.38605      9.73095         0.006697      0.005287      0.025577
      6.24413      9.86026      8.09895        -0.004956      0.022172     -0.014271
      8.77984      6.37422      8.48676         0.021439     -0.010450     -0.006517
      7.94784      6.99674      9.91958        -0.001522      0.007128      0.025226
      7.56635      8.10327      7.08777        -0.006909     -0.006833     -0.023214
      9.87423      9.69333      8.51152         0.111561      0.075126      0.016110
 -----------------------------------------------------------------------------------
    total drift:                                0.001517     -0.002246      0.002687


--------------------------------------------------------------------------------------------------------



  FREE ENERGIE OF THE ION-ELECTRON SYSTEM (eV)
  ---------------------------------------------------
  free  energy   TOTEN  =      -103.79589774 eV

  energy  without entropy=     -103.79589774  energy(sigma->0) =     -103.79589774
 


--------------------------------------------------------------------------------------------------------


    POTLOK:  cpu time      0.2308: real time      0.2309


--------------------------------------------------------------------------------------------------------


 stress matrix after NEB project (eV)
     -1.89792      0.06838      0.02909
      0.06838     -1.90038      0.03392
      0.02909      0.03392     -1.84181
  FORCES: max atom, RMS     0.150738    0.060272
  FORCE total and by dimension    0.248509    0.123385
  Stress total and by dimension    3.258706    1.900378
     LOOP+:  cpu time     16.2247: real time     16.2840
    4ORBIT:  cpu time      0.0000: real time      0.0000

 total amount of memory used by VASP MPI-rank0   110105. kBytes
=======================================================================

   base      :      30000. kBytes
   nonl-proj :      15437. kBytes
   fftplans  :      16001. kBytes
   grid      :      47042. kBytes
   one-center:         26. kBytes
   wavefun   :       1599. kBytes
 
  
  
 General timing and accounting informations for this job:
 ========================================================
  
                  Total CPU time used (sec):       17.000
                            User time (sec):       15.712
                          System time (sec):        1.288
                         Elapsed time (sec):       17.596
  
                   Maximum memory used (kb):      329788.
                   Average memory used (kb):          N/A
  
                          Minor page faults:       249732
                          Major page faults:           19
                 Voluntary context switches:           78
