   18   18 5000    1
  0.1875000E+03  0.1500000E-08  0.1500000E-08  0.1500000E-08  0.1000000E-15
  1.000000000000000E-004
  CAR 
 unknown system                          
     50      1     35
 
  0.0000000E+00  0.0000000E+00  0.0000000E+00  0.1000000E+01
      1        -22.960704   1.000000
      2        -22.804505   1.000000
      3        -20.976398   1.000000
      4        -20.153346   1.000000
      5        -18.199132   1.000000
      6        -17.684431   1.000000
      7        -15.517556   1.000000
      8        -13.925707   1.000000
      9        -13.439977   1.000000
     10        -13.090874   1.000000
     11        -12.240021   1.000000
     12        -11.182981   1.000000
     13        -10.927964   1.000000
     14        -10.298543   1.000000
     15        -10.169850   1.000000
     16         -9.134644   1.000000
     17         -8.914245   1.000000
     18         -8.801749   1.000000
     19         -8.754238   1.000000
     20         -8.609078   1.000000
     21         -8.575442   1.000000
     22         -8.401337   1.000000
     23         -8.156010   1.000000
     24         -7.149995   1.000000
     25         -6.044348   1.000000
     26         -3.495656   0.000000
     27         -2.433146   0.000000
     28         -1.047226   0.000000
     29         -0.829655   0.000000
     30         -0.342912   0.000000
     31         -0.116489   0.000000
     32          0.080563   0.000000
     33          0.240130   0.000000
     34          0.410645   0.000000
     35          0.484799   0.000000
