28
Lattice="26.8076 0.0 0.0 0.0 17.240099999999998 0.0 0.0 0.0 16.8815" Properties=species:S:1:pos:R:3:momenta:R:3:forces:R:3:magmoms:R:1 energy=-150.77618075 stress="0.0007571492395103611 7.938820748519564e-05 6.359411233271193e-07 7.938820748519564e-05 0.000849963251442297 -9.20800666323142e-05 6.359411233271193e-07 -9.20800666323142e-05 0.0007631298098642185" dipole="_JSON [[0.0, 0.0, 0.0]]" magmom=0.0 free_energy=-150.77618075 pbc="T T T"
N       18.42638457       8.07478114       8.95725733       0.35836812      -0.21811864       0.29510858       0.04210094       0.07595526       1.08911994       0.00000000
C       13.47619128       8.39070282       7.69895876       0.25099992       0.55752006      -0.12900358      -0.04630690       0.49106601      -0.72857796       0.00000000
C       12.19010473       9.16636515       8.12459544      -0.77865880      -0.82721890       0.06306581      -0.36725268       1.09449260      -0.76841164       0.00000000
C       14.86348771       9.15415016       7.86691528       0.08391332      -0.63953067       0.40864426      -1.59863423      -0.07192621       1.75869253       0.00000000
C       10.94345098       8.25975903       8.36684723       0.56732354       0.03193419      -0.02142616       0.24161671      -0.65347326      -0.63184825       0.00000000
C       15.92499673       8.24829695       8.50238973       0.07595311      -1.06035208      -0.49898240       0.12085335      -0.79833282       0.92576197       0.00000000
C        9.68244819       9.00083307       8.83841421      -0.39367952      -0.04363083      -0.63727904      -0.02257806       0.08348878      -2.18744678       0.00000000
C       17.30771723       8.90246458       8.57950710      -0.58864479       0.97966813       0.59386935      -0.65249717       1.68371852      -1.33004783       0.00000000
C        8.47842733       8.03424424       8.84904864       0.22236617       0.35020794       0.50022422      -0.73985264       0.54423365       0.24778151       0.00000000
H       13.56797011       7.43150770       8.22407523      -0.15674716       0.26809704      -0.05385804      -0.23959435       0.02616211       0.38588147       0.00000000
H       13.27399543       8.08748600       6.65622434      -0.44408465       0.16747355      -0.20784067       0.44855389       0.03035030      -0.09234998       0.00000000
H       11.90212510      10.05288966       7.31491868       0.20279023       0.26720883       0.16921539       0.71154169      -2.06992429       1.74807918       0.00000000
H       12.42063600       9.69878822       9.06648561       0.11139944      -0.27185518      -0.19435784      -0.12667613       0.09445262      -0.05864546       0.00000000
H       15.23201888       9.58971168       6.93941491      -0.19422566      -0.12370461      -0.23649146      -0.07825373       0.31785191      -0.18938682       0.00000000
H       14.61772505       9.95886712       8.66446456      -0.01319744      -0.06307044      -0.14776499       0.61898403      -0.58339305      -1.33612647       0.00000000
H       11.11729975       7.47827646       9.16093901      -0.07768794       0.09483511      -0.07600951       0.40832540       0.40819623      -0.61400363       0.00000000
H       10.71681673       7.67781778       7.40591288      -0.18032856       0.12035056       0.08592925       0.18506934       0.58984526       0.94866271       0.00000000
H       15.57453135       7.95425249       9.52468915      -0.05161273       0.03895478       0.11358683       0.17915104       0.14827311      -0.37406896       0.00000000
H       16.03374530       7.27878185       7.97879690      -0.07854278      -0.02590340       0.06658556      -0.13356515       0.13673655      -0.26035453       0.00000000
H        9.55205568       9.89425424       8.13027325       0.20880432       0.04726373      -0.04687284      -0.28809319      -0.94325717       0.76774921       0.00000000
H        9.88940938       9.41229048       9.80397133       0.00504462       0.13404958      -0.14105221      -0.03289567       0.38548331       1.00201146       0.00000000
H       17.19891652       9.82410121       9.26768150       0.22182598      -0.18239762       0.02197243       0.50130927      -1.11191684      -0.87983122       0.00000000
H       17.43817380       9.26315563       7.49361215      -0.07502696       0.00234021       0.05245548       0.02496913       0.29960454       1.01324670       0.00000000
H        8.19234322       7.67258106       7.83635919       0.07108629      -0.08908800      -0.09100630       0.46085261      -0.02611750       0.34833217       0.00000000
H        7.54768301       8.52084853       9.22063931       0.11761360      -0.11619107       0.22292232       0.38513624       0.01537771      -0.02210317       0.00000000
H        8.64047292       7.17688400       9.53839331       0.04827091       0.10769654       0.09560093       0.12750708       0.18134331      -0.41862160       0.00000000
H       19.27269600       8.64647687       9.10136662       0.08341874       0.11654285       0.08226128      -0.36765902      -0.68402662      -0.34241526       0.00000000
H       18.55740240       7.26406410       8.35182162       0.40325867       0.37691832      -0.28949665       0.23788819       0.33573597      -0.00107929       0.00000000
