   17   17 5000    1
  0.2149333E+03  0.1540225E-08  0.1540225E-08  0.1540225E-08  0.1000000E-15
  1.000000000000000E-004
  CAR 
 unknown system                          
     42      1     30
 
  0.0000000E+00  0.0000000E+00  0.0000000E+00  0.1000000E+01
      1        -22.023960   1.000000
      2        -20.496513   1.000000
      3        -19.486995   1.000000
      4        -18.149756   1.000000
      5        -15.933262   1.000000
      6        -15.586860   1.000000
      7        -13.159519   1.000000
      8        -12.610322   1.000000
      9        -12.415965   1.000000
     10        -11.101525   1.000000
     11        -10.959406   1.000000
     12        -10.123954   1.000000
     13         -9.692793   1.000000
     14         -9.328539   1.000000
     15         -8.880084   1.000000
     16         -8.769453   1.000000
     17         -8.073186   1.000000
     18         -8.018630   1.000000
     19         -7.688675   1.000000
     20         -6.593703   1.000000
     21         -5.653152   1.000000
     22         -2.600631   0.000000
     23         -1.393284   0.000000
     24         -0.650481   0.000000
     25         -0.161318   0.000000
     26         -0.066368   0.000000
     27          0.072823   0.000000
     28          0.320548   0.000000
     29          0.413407   0.000000
     30          0.494087   0.000000
