       N       E                     dE             d eps       ncg     rms          rms(c)
DAV:   1     0.330825455217E+03    0.33083E+03   -0.10161E+04    76   0.668E+02
DAV:   2     0.352544146472E+02   -0.29557E+03   -0.28589E+03   104   0.136E+02
DAV:   3    -0.957470661450E+02   -0.13100E+03   -0.13067E+03    72   0.107E+02
DAV:   4    -0.111500956679E+03   -0.15754E+02   -0.15708E+02    72   0.493E+01
DAV:   5    -0.111863530543E+03   -0.36257E+00   -0.36155E+00    88   0.862E+00    0.171E+01
RMM:   6    -0.103461548828E+03    0.84020E+01   -0.11711E+01    60   0.139E+01    0.930E+00
RMM:   7    -0.101393977610E+03    0.20676E+01   -0.11365E+01    60   0.134E+01    0.388E+00
RMM:   8    -0.101230819851E+03    0.16316E+00   -0.70709E-01    60   0.438E+00    0.235E+00
RMM:   9    -0.101131751812E+03    0.99068E-01   -0.43767E-01    60   0.290E+00    0.641E-01
RMM:  10    -0.101127825517E+03    0.39263E-02   -0.71248E-02    63   0.119E+00    0.300E-01
RMM:  11    -0.101135111311E+03   -0.72858E-02   -0.91740E-02    60   0.111E+00    0.336E-01
RMM:  12    -0.101132554057E+03    0.25573E-02   -0.86748E-03    61   0.478E-01    0.207E-01
RMM:  13    -0.101139879378E+03   -0.73253E-02   -0.11686E-02    60   0.419E-01    0.720E-02
RMM:  14    -0.101144548812E+03   -0.46694E-02   -0.38764E-03    63   0.236E-01    0.612E-02
RMM:  15    -0.101156153148E+03   -0.11604E-01   -0.22322E-03    60   0.171E-01    0.301E-02
RMM:  16    -0.101158550809E+03   -0.23977E-02   -0.10276E-03    63   0.863E-02    0.259E-02
RMM:  17    -0.101161860114E+03   -0.33093E-02   -0.56715E-04    60   0.825E-02    0.179E-02
RMM:  18    -0.101162690407E+03   -0.83029E-03   -0.23875E-04    55   0.437E-02    0.124E-02
RMM:  19    -0.101163188152E+03   -0.49774E-03   -0.14469E-04    58   0.357E-02    0.672E-03
RMM:  20    -0.101163351324E+03   -0.16317E-03   -0.19380E-05    42   0.160E-02    0.376E-03
RMM:  21    -0.101163458850E+03   -0.10753E-03   -0.11133E-05    39   0.112E-02    0.177E-03
RMM:  22    -0.101163504809E+03   -0.45959E-04   -0.33614E-06    35   0.701E-03    0.106E-03
RMM:  23    -0.101163518215E+03   -0.13406E-04   -0.10557E-06    30   0.459E-03    0.115E-03
RMM:  24    -0.101163528249E+03   -0.10033E-04   -0.33477E-07    23   0.329E-03    0.311E-04
RMM:  25    -0.101163532002E+03   -0.37534E-05   -0.42522E-07    25   0.358E-03
   1 F= -.10139551E+03 E0= -.10139551E+03  d E =-.101396E+03
       N       E                     dE             d eps       ncg     rms          rms(c)
DAV:   1    -0.101169427959E+03   -0.58997E-02   -0.66806E-02    80   0.158E+00    0.753E-02
RMM:   2    -0.101169450042E+03   -0.22083E-04   -0.12773E-03    61   0.193E-01    0.455E-02
RMM:   3    -0.101169440284E+03    0.97586E-05   -0.26426E-04    61   0.895E-02    0.179E-02
RMM:   4    -0.101169447989E+03   -0.77058E-05   -0.84694E-05    60   0.463E-02
   2 F= -.10140146E+03 E0= -.10140146E+03  d E =-.594275E-02
       N       E                     dE             d eps       ncg     rms          rms(c)
DAV:   1    -0.101175703832E+03   -0.62635E-02   -0.10179E-01    66   0.192E+00    0.928E-02
RMM:   2    -0.101175672389E+03    0.31442E-04   -0.13637E-03    60   0.225E-01    0.552E-02
RMM:   3    -0.101175660489E+03    0.11900E-04   -0.41455E-04    61   0.104E-01    0.198E-02
RMM:   4    -0.101175670401E+03   -0.99113E-05   -0.88476E-05    63   0.501E-02
   3 F= -.10140777E+03 E0= -.10140777E+03  d E =-.631387E-02
       N       E                     dE             d eps       ncg     rms          rms(c)
DAV:   1    -0.101179098777E+03   -0.34383E-02   -0.43289E-02    72   0.125E+00    0.635E-02
RMM:   2    -0.101179095034E+03    0.37438E-05   -0.70048E-04    60   0.148E-01    0.380E-02
RMM:   3    -0.101179089459E+03    0.55749E-05   -0.16113E-04    61   0.686E-02    0.176E-02
RMM:   4    -0.101179093609E+03   -0.41503E-05   -0.43853E-05    48   0.356E-02
   4 F= -.10141122E+03 E0= -.10141122E+03  d E =-.345357E-02
       N       E                     dE             d eps       ncg     rms          rms(c)
DAV:   1    -0.101181667548E+03   -0.25781E-02   -0.23152E-02    72   0.912E-01    0.392E-02
RMM:   2    -0.101181672460E+03   -0.49117E-05   -0.28408E-04    60   0.101E-01    0.239E-02
RMM:   3    -0.101181674626E+03   -0.21664E-05   -0.71935E-05    61   0.457E-02
   5 F= -.10141384E+03 E0= -.10141384E+03  d E =-.261970E-02
       N       E                     dE             d eps       ncg     rms          rms(c)
DAV:   1    -0.101187164527E+03   -0.54921E-02   -0.12845E-01    72   0.215E+00    0.881E-02
RMM:   2    -0.101187231910E+03   -0.67384E-04   -0.14800E-03    60   0.229E-01    0.543E-02
RMM:   3    -0.101187255217E+03   -0.23307E-04   -0.32592E-04    62   0.102E-01    0.141E-02
RMM:   4    -0.101187264122E+03   -0.89050E-05   -0.76026E-05    57   0.468E-02
   6 F= -.10141951E+03 E0= -.10141951E+03  d E =-.566858E-02
       N       E                     dE             d eps       ncg     rms          rms(c)
DAV:   1    -0.101195313072E+03   -0.80579E-02   -0.45100E-01    60   0.405E+00    0.174E-01
RMM:   2    -0.101195494184E+03   -0.18111E-03   -0.58090E-03    60   0.443E-01    0.107E-01
RMM:   3    -0.101195532074E+03   -0.37890E-04   -0.12378E-03    61   0.200E-01    0.374E-02
RMM:   4    -0.101195568032E+03   -0.35958E-04   -0.33803E-04    66   0.983E-02    0.168E-02
RMM:   5    -0.101195575634E+03   -0.76024E-05   -0.50109E-05    54   0.391E-02
   7 F= -.10142791E+03 E0= -.10142791E+03  d E =-.840107E-02
       N       E                     dE             d eps       ncg     rms          rms(c)
DAV:   1    -0.101199417177E+03   -0.38491E-02   -0.12446E-01    72   0.209E+00    0.120E-01
RMM:   2    -0.101199407757E+03    0.94193E-05   -0.27273E-03    61   0.275E-01    0.664E-02
RMM:   3    -0.101199394182E+03    0.13576E-04   -0.43952E-04    62   0.117E-01    0.347E-02
RMM:   4    -0.101199404497E+03   -0.10316E-04   -0.14687E-04    57   0.636E-02    0.111E-02
RMM:   5    -0.101199408758E+03   -0.42608E-05   -0.21129E-05    45   0.255E-02
   8 F= -.10143182E+03 E0= -.10143182E+03  d E =-.390736E-02
       N       E                     dE             d eps       ncg     rms          rms(c)
DAV:   1    -0.101203499125E+03   -0.40946E-02   -0.13424E-01    66   0.221E+00    0.922E-02
RMM:   2    -0.101203559757E+03   -0.60631E-04   -0.16354E-03    60   0.237E-01    0.566E-02
RMM:   3    -0.101203575094E+03   -0.15337E-04   -0.33403E-04    60   0.107E-01    0.169E-02
RMM:   4    -0.101203588032E+03   -0.12938E-04   -0.10347E-04    63   0.529E-02    0.907E-03
RMM:   5    -0.101203591846E+03   -0.38144E-05   -0.16747E-05    39   0.230E-02
   9 F= -.10143604E+03 E0= -.10143604E+03  d E =-.422252E-02
       N       E                     dE             d eps       ncg     rms          rms(c)
DAV:   1    -0.101205561429E+03   -0.19734E-02   -0.42961E-02    60   0.125E+00    0.524E-02
RMM:   2    -0.101205582228E+03   -0.20799E-04   -0.55396E-04    60   0.138E-01    0.322E-02
RMM:   3    -0.101205587951E+03   -0.57234E-05   -0.11634E-04    61   0.623E-02    0.104E-02
RMM:   4    -0.101205592760E+03   -0.48085E-05   -0.30635E-05    45   0.304E-02
  10 F= -.10143806E+03 E0= -.10143806E+03  d E =-.201237E-02
       N       E                     dE             d eps       ncg     rms          rms(c)
DAV:   1    -0.101208259023E+03   -0.26711E-02   -0.99579E-02    60   0.191E+00    0.870E-02
RMM:   2    -0.101208291539E+03   -0.32516E-04   -0.15385E-03    60   0.224E-01    0.519E-02
RMM:   3    -0.101208301601E+03   -0.10062E-04   -0.33242E-04    61   0.970E-02    0.242E-02
RMM:   4    -0.101208310941E+03   -0.93404E-05   -0.79774E-05    57   0.490E-02
  11 F= -.10144082E+03 E0= -.10144082E+03  d E =-.276065E-02
       N       E                     dE             d eps       ncg     rms          rms(c)
DAV:   1    -0.101211394623E+03   -0.30930E-02   -0.16380E-01    60   0.244E+00    0.111E-01
RMM:   2    -0.101211449866E+03   -0.55244E-04   -0.23854E-03    60   0.280E-01    0.667E-02
RMM:   3    -0.101211460790E+03   -0.10924E-04   -0.51027E-04    62   0.125E-01    0.278E-02
RMM:   4    -0.101211471544E+03   -0.10754E-04   -0.11420E-04    60   0.610E-02    0.101E-02
RMM:   5    -0.101211476107E+03   -0.45639E-05   -0.25356E-05    43   0.258E-02
  12 F= -.10144397E+03 E0= -.10144397E+03  d E =-.315776E-02
       N       E                     dE             d eps       ncg     rms          rms(c)
DAV:   1    -0.101213124822E+03   -0.16533E-02   -0.75754E-02    60   0.163E+00    0.899E-02
RMM:   2    -0.101213130214E+03   -0.53919E-05   -0.16135E-03    61   0.210E-01    0.505E-02
RMM:   3    -0.101213125133E+03    0.50814E-05   -0.25242E-04    61   0.889E-02    0.270E-02
RMM:   4    -0.101213131581E+03   -0.64476E-05   -0.84632E-05    51   0.483E-02
  13 F= -.10144565E+03 E0= -.10144565E+03  d E =-.167715E-02
       N       E                     dE             d eps       ncg     rms          rms(c)
DAV:   1    -0.101215169937E+03   -0.20448E-02   -0.73405E-02    66   0.163E+00    0.698E-02
RMM:   2    -0.101215203242E+03   -0.33304E-04   -0.96574E-04    60   0.181E-01    0.426E-02
RMM:   3    -0.101215212593E+03   -0.93508E-05   -0.19961E-04    62   0.805E-02    0.149E-02
RMM:   4    -0.101215218317E+03   -0.57242E-05   -0.44201E-05    48   0.379E-02
  14 F= -.10144772E+03 E0= -.10144772E+03  d E =-.207135E-02
       N       E                     dE             d eps       ncg     rms          rms(c)
DAV:   1    -0.101216341482E+03   -0.11289E-02   -0.39229E-02    60   0.119E+00    0.513E-02
RMM:   2    -0.101216362260E+03   -0.20778E-04   -0.57905E-04    60   0.138E-01    0.317E-02
RMM:   3    -0.101216367248E+03   -0.49884E-05   -0.11891E-04    60   0.608E-02    0.133E-02
RMM:   4    -0.101216370836E+03   -0.35878E-05   -0.27198E-05    45   0.291E-02
  15 F= -.10144884E+03 E0= -.10144884E+03  d E =-.112188E-02
       N       E                     dE             d eps       ncg     rms          rms(c)
DAV:   1    -0.101217668989E+03   -0.13017E-02   -0.53442E-02    60   0.139E+00    0.639E-02
RMM:   2    -0.101217689765E+03   -0.20776E-04   -0.91634E-04    61   0.165E-01    0.378E-02
RMM:   3    -0.101217692427E+03   -0.26623E-05   -0.14609E-04    60   0.695E-02    0.194E-02
RMM:   4    -0.101217698461E+03   -0.60335E-05   -0.47977E-05    49   0.368E-02
  16 F= -.10145016E+03 E0= -.10145016E+03  d E =-.131878E-02
       N       E                     dE             d eps       ncg     rms          rms(c)
DAV:   1    -0.101219124441E+03   -0.14320E-02   -0.65082E-02    60   0.153E+00    0.619E-02
RMM:   2    -0.101219160112E+03   -0.35670E-04   -0.86879E-04    60   0.171E-01    0.381E-02
RMM:   3    -0.101219169142E+03   -0.90308E-05   -0.17474E-04    62   0.754E-02    0.142E-02
RMM:   4    -0.101219173793E+03   -0.46505E-05   -0.38473E-05    47   0.354E-02
  17 F= -.10145158E+03 E0= -.10145158E+03  d E =-.142058E-02
       N       E                     dE             d eps       ncg     rms          rms(c)
DAV:   1    -0.101220160977E+03   -0.99183E-03   -0.43141E-02    60   0.124E+00    0.511E-02
RMM:   2    -0.101220185085E+03   -0.24108E-04   -0.65958E-04    61   0.143E-01    0.310E-02
RMM:   3    -0.101220190148E+03   -0.50627E-05   -0.10868E-04    59   0.605E-02    0.152E-02
RMM:   4    -0.101220195054E+03   -0.49065E-05   -0.32385E-05    46   0.308E-02
  18 F= -.10145257E+03 E0= -.10145257E+03  d E =-.981994E-03
       N       E                     dE             d eps       ncg     rms          rms(c)
DAV:   1    -0.101221267829E+03   -0.10777E-02   -0.41770E-02    60   0.122E+00    0.457E-02
RMM:   2    -0.101221295131E+03   -0.27303E-04   -0.52262E-04    60   0.134E-01    0.285E-02
RMM:   3    -0.101221302693E+03   -0.75617E-05   -0.10213E-04    61   0.592E-02    0.886E-03
RMM:   4    -0.101221306371E+03   -0.36776E-05   -0.26469E-05    44   0.277E-02
  19 F= -.10145362E+03 E0= -.10145362E+03  d E =-.105218E-02
       N       E                     dE             d eps       ncg     rms          rms(c)
DAV:   1    -0.101222426831E+03   -0.11241E-02   -0.65171E-02    60   0.152E+00    0.591E-02
RMM:   2    -0.101222464009E+03   -0.37178E-04   -0.89468E-04    60   0.172E-01    0.369E-02
RMM:   3    -0.101222472528E+03   -0.85190E-05   -0.18410E-04    62   0.762E-02    0.152E-02
RMM:   4    -0.101222476797E+03   -0.42689E-05   -0.39061E-05    48   0.356E-02
  20 F= -.10145470E+03 E0= -.10145470E+03  d E =-.107801E-02
       N       E                     dE             d eps       ncg     rms          rms(c)
DAV:   1    -0.101223616664E+03   -0.11441E-02   -0.59380E-02    60   0.145E+00    0.582E-02
RMM:   2    -0.101223645625E+03   -0.28961E-04   -0.86073E-04    60   0.166E-01    0.352E-02
RMM:   3    -0.101223655706E+03   -0.10080E-04   -0.18933E-04    61   0.728E-02    0.172E-02
RMM:   4    -0.101223661304E+03   -0.55981E-05   -0.42419E-05    48   0.356E-02
  21 F= -.10145581E+03 E0= -.10145581E+03  d E =-.111513E-02
       N       E                     dE             d eps       ncg     rms          rms(c)
DAV:   1    -0.101224999046E+03   -0.13433E-02   -0.82960E-02    60   0.171E+00    0.607E-02
RMM:   2    -0.101225051626E+03   -0.52580E-04   -0.10034E-03    60   0.186E-01    0.379E-02
RMM:   3    -0.101225066685E+03   -0.15059E-04   -0.21275E-04    62   0.830E-02    0.118E-02
RMM:   4    -0.101225072291E+03   -0.56058E-05   -0.44546E-05    48   0.375E-02
  22 F= -.10145710E+03 E0= -.10145710E+03  d E =-.128660E-02
       N       E                     dE             d eps       ncg     rms          rms(c)
DAV:   1    -0.101226356086E+03   -0.12894E-02   -0.73630E-02    60   0.161E+00    0.559E-02
RMM:   2    -0.101226399230E+03   -0.43144E-04   -0.88134E-04    60   0.174E-01    0.348E-02
RMM:   3    -0.101226414316E+03   -0.15086E-04   -0.20253E-04    62   0.785E-02    0.115E-02
RMM:   4    -0.101226419801E+03   -0.54856E-05   -0.40017E-05    47   0.354E-02
  23 F= -.10145831E+03 E0= -.10145831E+03  d E =-.121554E-02
       N       E                     dE             d eps       ncg     rms          rms(c)
DAV:   1    -0.101226534109E+03   -0.11979E-03   -0.13197E-03    88   0.210E-01    0.132E-02
RMM:   2    -0.101226533819E+03    0.28995E-06   -0.28597E-05    42   0.277E-02
  24 F= -.10145840E+03 E0= -.10145840E+03  d E =-.900070E-04
       N       E                     dE             d eps       ncg     rms          rms(c)
DAV:   1    -0.101226874965E+03   -0.34086E-03   -0.38389E-03    66   0.366E-01    0.139E-02
RMM:   2    -0.101226876716E+03   -0.17511E-05   -0.49086E-05    50   0.406E-02
  25 F= -.10145871E+03 E0= -.10145871E+03  d E =-.304643E-03
       N       E                     dE             d eps       ncg     rms          rms(c)
DAV:   1    -0.101227284875E+03   -0.40991E-03   -0.48383E-03    72   0.408E-01    0.166E-02
RMM:   2    -0.101227286384E+03   -0.15085E-05   -0.57917E-05    52   0.443E-02
  26 F= -.10145907E+03 E0= -.10145907E+03  d E =-.357151E-03
       N       E                     dE             d eps       ncg     rms          rms(c)
DAV:   1    -0.101233284286E+03   -0.59994E-02   -0.10875E+00    60   0.608E+00    0.205E-01
RMM:   2    -0.101233697288E+03   -0.41300E-03   -0.11320E-02    60   0.627E-01    0.125E-01
RMM:   3    -0.101233851943E+03   -0.15465E-03   -0.30358E-03    62   0.292E-01    0.388E-02
RMM:   4    -0.101233915364E+03   -0.63421E-04   -0.59662E-04    69   0.131E-01    0.233E-02
RMM:   5    -0.101233925836E+03   -0.10472E-04   -0.93476E-05    60   0.520E-02    0.110E-02
RMM:   6    -0.101233932022E+03   -0.61854E-05   -0.12747E-05    40   0.208E-02
  27 F= -.10146490E+03 E0= -.10146490E+03  d E =-.583166E-02
       N       E                     dE             d eps       ncg     rms          rms(c)
DAV:   1    -0.101233435475E+03    0.49036E-03   -0.95647E-03    88   0.568E-01    0.199E-02
RMM:   2    -0.101233443029E+03   -0.75536E-05   -0.10577E-04    59   0.591E-02    0.120E-02
RMM:   3    -0.101233449819E+03   -0.67904E-05   -0.21160E-05    42   0.265E-02
  28 F= -.10146447E+03 E0= -.10146447E+03  d E =0.426558E-03
       N       E                     dE             d eps       ncg     rms          rms(c)
DAV:   1    -0.101234191429E+03   -0.74840E-03   -0.10579E-02    72   0.596E-01    0.200E-02
RMM:   2    -0.101234195072E+03   -0.36423E-05   -0.99700E-05    60   0.583E-02
  29 F= -.10146513E+03 E0= -.10146513E+03  d E =-.654439E-03
       N       E                     dE             d eps       ncg     rms          rms(c)
DAV:   1    -0.101234775555E+03   -0.58413E-03   -0.66013E-03    72   0.479E-01    0.195E-02
RMM:   2    -0.101234778534E+03   -0.29795E-05   -0.73253E-05    57   0.492E-02
  30 F= -.10146563E+03 E0= -.10146563E+03  d E =-.509818E-03
       N       E                     dE             d eps       ncg     rms          rms(c)
DAV:   1    -0.101236156594E+03   -0.13810E-02   -0.40196E-02    60   0.118E+00    0.435E-02
RMM:   2    -0.101236172115E+03   -0.15521E-04   -0.41438E-04    60   0.119E-01    0.269E-02
RMM:   3    -0.101236182436E+03   -0.10321E-04   -0.11969E-04    63   0.560E-02    0.653E-03
RMM:   4    -0.101236184893E+03   -0.24570E-05   -0.17544E-05    40   0.246E-02
  31 F= -.10146686E+03 E0= -.10146686E+03  d E =-.122282E-02
       N       E                     dE             d eps       ncg     rms          rms(c)
DAV:   1    -0.101240760301E+03   -0.45779E-02   -0.52310E-01    60   0.426E+00    0.154E-01
RMM:   2    -0.101240964449E+03   -0.20415E-03   -0.52291E-03    60   0.426E-01    0.938E-02
RMM:   3    -0.101241048638E+03   -0.84189E-04   -0.13882E-03    62   0.198E-01    0.242E-02
RMM:   4    -0.101241080513E+03   -0.31875E-04   -0.30694E-04    68   0.900E-02    0.163E-02
RMM:   5    -0.101241086644E+03   -0.61317E-05   -0.47048E-05    50   0.369E-02
  32 F= -.10147108E+03 E0= -.10147108E+03  d E =-.422391E-02
       N       E                     dE             d eps       ncg     rms          rms(c)
DAV:   1    -0.101241539896E+03   -0.45938E-03   -0.11211E-02    88   0.631E-01    0.242E-02
RMM:   2    -0.101241546848E+03   -0.69520E-05   -0.13007E-04    60   0.677E-02    0.152E-02
RMM:   3    -0.101241553122E+03   -0.62745E-05   -0.29014E-05    43   0.314E-02
  33 F= -.10147148E+03 E0= -.10147148E+03  d E =-.394741E-03
       N       E                     dE             d eps       ncg     rms          rms(c)
DAV:   1    -0.101241605544E+03   -0.58696E-04   -0.86562E-04    72   0.172E-01    0.719E-03
RMM:   2    -0.101241608621E+03   -0.30772E-05   -0.14229E-05    39   0.217E-02
  34 F= -.10147152E+03 E0= -.10147152E+03  d E =-.444571E-04
       N       E                     dE             d eps       ncg     rms          rms(c)
DAV:   1    -0.101241880929E+03   -0.27538E-03   -0.75317E-03    72   0.516E-01    0.200E-02
RMM:   2    -0.101241887139E+03   -0.62101E-05   -0.96312E-05    60   0.573E-02
  35 F= -.10147175E+03 E0= -.10147175E+03  d E =-.228220E-03
       N       E                     dE             d eps       ncg     rms          rms(c)
DAV:   1    -0.101243133101E+03   -0.12522E-02   -0.45890E-01    60   0.401E+00    0.151E-01
RMM:   2    -0.101243458018E+03   -0.32492E-03   -0.57345E-03    60   0.443E-01    0.937E-02
RMM:   3    -0.101243541462E+03   -0.83444E-04   -0.11324E-03    62   0.197E-01    0.260E-02
RMM:   4    -0.101243568831E+03   -0.27369E-04   -0.23600E-04    66   0.877E-02    0.139E-02
RMM:   5    -0.101243575944E+03   -0.71124E-05   -0.38574E-05    47   0.366E-02
  36 F= -.10147306E+03 E0= -.10147306E+03  d E =-.130623E-02
       N       E                     dE             d eps       ncg     rms          rms(c)
DAV:   1    -0.101244057213E+03   -0.48838E-03   -0.21702E-01    60   0.275E+00    0.102E-01
RMM:   2    -0.101244212998E+03   -0.15578E-03   -0.27358E-03    60   0.306E-01    0.633E-02
RMM:   3    -0.101244252627E+03   -0.39630E-04   -0.51840E-04    61   0.136E-01    0.180E-02
RMM:   4    -0.101244269829E+03   -0.17202E-04   -0.12743E-04    65   0.627E-02    0.952E-03
RMM:   5    -0.101244276213E+03   -0.63840E-05   -0.19097E-05    41   0.265E-02
  37 F= -.10147350E+03 E0= -.10147350E+03  d E =-.445440E-03
       N       E                     dE             d eps       ncg     rms          rms(c)
DAV:   1    -0.101243601624E+03    0.66821E-03   -0.85077E-02    72   0.173E+00    0.643E-02
RMM:   2    -0.101243662650E+03   -0.61026E-04   -0.10101E-03    60   0.187E-01    0.396E-02
RMM:   3    -0.101243686335E+03   -0.23685E-04   -0.19277E-04    61   0.824E-02    0.103E-02
RMM:   4    -0.101243694893E+03   -0.85584E-05   -0.47604E-05    49   0.378E-02
  38 F= -.10147311E+03 E0= -.10147311E+03  d E =0.391295E-03
       N       E                     dE             d eps       ncg     rms          rms(c)
DAV:   1    -0.101243946119E+03   -0.25978E-03   -0.14254E-01    60   0.222E+00    0.820E-02
RMM:   2    -0.101244049256E+03   -0.10314E-03   -0.17642E-03    60   0.245E-01    0.503E-02
RMM:   3    -0.101244073457E+03   -0.24201E-04   -0.31784E-04    61   0.107E-01    0.143E-02
RMM:   4    -0.101244081366E+03   -0.79093E-05   -0.72386E-05    58   0.488E-02
  39 F= -.10147331E+03 E0= -.10147331E+03  d E =-.198532E-03
       N       E                     dE             d eps       ncg     rms          rms(c)
DAV:   1    -0.101243780942E+03    0.29251E-03   -0.24770E-01    60   0.291E+00    0.109E-01
RMM:   2    -0.101243970284E+03   -0.18934E-03   -0.32300E-03    60   0.329E-01    0.676E-02
RMM:   3    -0.101244011478E+03   -0.41193E-04   -0.58633E-04    61   0.146E-01    0.192E-02
RMM:   4    -0.101244027164E+03   -0.15686E-04   -0.13925E-04    65   0.662E-02    0.983E-03
RMM:   5    -0.101244030756E+03   -0.35925E-05   -0.19813E-05    41   0.271E-02
  40 F= -.10147306E+03 E0= -.10147306E+03  d E =0.252367E-03
       N       E                     dE             d eps       ncg     rms          rms(c)
DAV:   1    -0.101243879505E+03    0.14766E-03   -0.65969E-02    60   0.151E+00    0.562E-02
RMM:   2    -0.101243931032E+03   -0.51527E-04   -0.80804E-04    60   0.166E-01    0.347E-02
RMM:   3    -0.101243948327E+03   -0.17295E-04   -0.14420E-04    61   0.719E-02    0.934E-03
RMM:   4    -0.101243954288E+03   -0.59614E-05   -0.32862E-05    46   0.324E-02
  41 F= -.10147311E+03 E0= -.10147311E+03  d E =-.549708E-04
       N       E                     dE             d eps       ncg     rms          rms(c)
DAV:   1    -0.101243753883E+03    0.19444E-03   -0.66678E-02    60   0.150E+00    0.550E-02
RMM:   2    -0.101243803804E+03   -0.49921E-04   -0.84111E-04    60   0.167E-01    0.339E-02
RMM:   3    -0.101243814190E+03   -0.10386E-04   -0.14596E-04    61   0.730E-02    0.984E-03
RMM:   4    -0.101243817600E+03   -0.34099E-05   -0.31511E-05    45   0.332E-02
  42 F= -.10147289E+03 E0= -.10147289E+03  d E =0.225419E-03
       N       E                     dE             d eps       ncg     rms          rms(c)
DAV:   1    -0.101242801710E+03    0.10125E-02   -0.32366E-01    60   0.330E+00    0.122E-01
RMM:   2    -0.101243050757E+03   -0.24905E-03   -0.42439E-03    60   0.375E-01    0.761E-02
RMM:   3    -0.101243099842E+03   -0.49085E-04   -0.75604E-04    61   0.166E-01    0.217E-02
RMM:   4    -0.101243118820E+03   -0.18978E-04   -0.17656E-04    65   0.751E-02    0.108E-02
RMM:   5    -0.101243122101E+03   -0.32815E-05   -0.25027E-05    42   0.304E-02
  43 F= -.10147202E+03 E0= -.10147202E+03  d E =0.861419E-03
       N       E                     dE             d eps       ncg     rms          rms(c)
DAV:   1    -0.101243140394E+03   -0.21574E-04   -0.16248E-02    72   0.754E-01    0.284E-02
RMM:   2    -0.101243153954E+03   -0.13560E-04   -0.19433E-04    60   0.813E-02    0.174E-02
RMM:   3    -0.101243160623E+03   -0.66694E-05   -0.34304E-05    46   0.349E-02
  44 F= -.10147213E+03 E0= -.10147213E+03  d E =-.109018E-03
       N       E                     dE             d eps       ncg     rms          rms(c)
DAV:   1    -0.101242828932E+03    0.32502E-03   -0.30178E-02    66   0.100E+00    0.359E-02
RMM:   2    -0.101242850561E+03   -0.21630E-04   -0.37857E-04    60   0.111E-01    0.221E-02
RMM:   3    -0.101242854482E+03   -0.39207E-05   -0.63323E-05    55   0.485E-02
  45 F= -.10147179E+03 E0= -.10147179E+03  d E =0.338935E-03
       N       E                     dE             d eps       ncg     rms          rms(c)
DAV:   1    -0.101241387293E+03    0.14633E-02   -0.27814E-01    60   0.302E+00    0.109E-01
RMM:   2    -0.101241600086E+03   -0.21279E-03   -0.36849E-03    60   0.347E-01    0.687E-02
RMM:   3    -0.101241637554E+03   -0.37468E-04   -0.64332E-04    60   0.155E-01    0.196E-02
RMM:   4    -0.101241656154E+03   -0.18601E-04   -0.17178E-04    66   0.726E-02    0.970E-03
RMM:   5    -0.101241658820E+03   -0.26653E-05   -0.21711E-05    41   0.287E-02
  46 F= -.10147055E+03 E0= -.10147055E+03  d E =0.124538E-02
       N       E                     dE             d eps       ncg     rms          rms(c)
DAV:   1    -0.101238928639E+03    0.27275E-02   -0.67707E-01    60   0.470E+00    0.169E-01
RMM:   2    -0.101239419827E+03   -0.49119E-03   -0.88461E-03    60   0.537E-01    0.105E-01
RMM:   3    -0.101239500575E+03   -0.80748E-04   -0.15487E-03    60   0.239E-01    0.310E-02
RMM:   4    -0.101239544412E+03   -0.43837E-04   -0.39673E-04    65   0.112E-01    0.149E-02
RMM:   5    -0.101239552871E+03   -0.84591E-05   -0.63913E-05    54   0.458E-02
  47 F= -.10146839E+03 E0= -.10146839E+03  d E =0.215863E-02
       N       E                     dE             d eps       ncg     rms          rms(c)
DAV:   1    -0.101239656331E+03   -0.11192E-03   -0.45307E-03    80   0.401E-01    0.153E-02
RMM:   2    -0.101239661740E+03   -0.54090E-05   -0.47728E-05    49   0.404E-02
  48 F= -.10146855E+03 E0= -.10146855E+03  d E =-.160268E-03
       N       E                     dE             d eps       ncg     rms          rms(c)
DAV:   1    -0.101239035787E+03    0.62054E-03   -0.54963E-02    60   0.133E+00    0.447E-02
RMM:   2    -0.101239074209E+03   -0.38421E-04   -0.69771E-04    60   0.150E-01    0.279E-02
RMM:   3    -0.101239081208E+03   -0.69993E-05   -0.12375E-04    60   0.670E-02    0.878E-03
RMM:   4    -0.101239086228E+03   -0.50203E-05   -0.30486E-05    46   0.314E-02
  49 F= -.10146800E+03 E0= -.10146800E+03  d E =0.554872E-03
       N       E                     dE             d eps       ncg     rms          rms(c)
DAV:   1    -0.101238101342E+03    0.97987E-03   -0.14824E-01    60   0.217E+00    0.747E-02
RMM:   2    -0.101238191682E+03   -0.90340E-04   -0.18871E-03    60   0.247E-01    0.468E-02
RMM:   3    -0.101238205839E+03   -0.14157E-04   -0.35771E-04    60   0.113E-01    0.140E-02
RMM:   4    -0.101238216874E+03   -0.11035E-04   -0.94886E-05    58   0.526E-02    0.723E-03
RMM:   5    -0.101238219243E+03   -0.23682E-05   -0.12221E-05    40   0.209E-02
  50 F= -.10146720E+03 E0= -.10146720E+03  d E =0.794264E-03
       N       E                     dE             d eps       ncg     rms          rms(c)
DAV:   1    -0.101238315527E+03   -0.98653E-04   -0.13276E-03    88   0.216E-01    0.833E-03
RMM:   2    -0.101238317484E+03   -0.19567E-05   -0.15257E-05    39   0.222E-02
  51 F= -.10146732E+03 E0= -.10146732E+03  d E =-.122974E-03
       N       E                     dE             d eps       ncg     rms          rms(c)
DAV:   1    -0.101238147021E+03    0.16851E-03   -0.10727E-02    60   0.580E-01    0.183E-02
RMM:   2    -0.101238153023E+03   -0.60021E-05   -0.12837E-04    59   0.642E-02    0.114E-02
RMM:   3    -0.101238154826E+03   -0.18030E-05   -0.26867E-05    44   0.294E-02
  52 F= -.10146720E+03 E0= -.10146720E+03  d E =0.127698E-03
       N       E                     dE             d eps       ncg     rms          rms(c)
DAV:   1    -0.101237295953E+03    0.85707E-03   -0.10037E+00    60   0.559E+00    0.178E-01
RMM:   2    -0.101237706827E+03   -0.41087E-03   -0.11495E-02    60   0.607E-01    0.112E-01
RMM:   3    -0.101237787584E+03   -0.80757E-04   -0.27619E-03    62   0.286E-01    0.340E-02
RMM:   4    -0.101237834402E+03   -0.46818E-04   -0.44588E-04    67   0.123E-01    0.184E-02
RMM:   5    -0.101237845260E+03   -0.10858E-04   -0.73520E-05    56   0.513E-02    0.627E-03
RMM:   6    -0.101237849795E+03   -0.45356E-05   -0.17605E-05    41   0.247E-02
  53 F= -.10146735E+03 E0= -.10146735E+03  d E =-.155793E-03
       N       E                     dE             d eps       ncg     rms          rms(c)
DAV:   1    -0.101237977189E+03   -0.13193E-03   -0.95533E-04    88   0.181E-01    0.926E-03
RMM:   2    -0.101237978842E+03   -0.16533E-05   -0.16129E-05    39   0.212E-02
  54 F= -.10146749E+03 E0= -.10146749E+03  d E =-.142290E-03
       N       E                     dE             d eps       ncg     rms          rms(c)
DAV:   1    -0.101238091087E+03   -0.11390E-03   -0.54762E-03    72   0.412E-01    0.133E-02
RMM:   2    -0.101238094338E+03   -0.32510E-05   -0.63542E-05    51   0.448E-02
  55 F= -.10146765E+03 E0= -.10146765E+03  d E =-.156601E-03
       N       E                     dE             d eps       ncg     rms          rms(c)
DAV:   1    -0.101238318662E+03   -0.22757E-03   -0.82503E-03    60   0.506E-01    0.179E-02
RMM:   2    -0.101238321001E+03   -0.23397E-05   -0.95398E-05    55   0.539E-02
  56 F= -.10146793E+03 E0= -.10146793E+03  d E =-.283747E-03
       N       E                     dE             d eps       ncg     rms          rms(c)
DAV:   1    -0.101239657065E+03   -0.13384E-02   -0.24045E-01    60   0.272E+00    0.854E-02
RMM:   2    -0.101239728240E+03   -0.71175E-04   -0.25712E-03    60   0.283E-01    0.541E-02
RMM:   3    -0.101239757224E+03   -0.28985E-04   -0.72366E-04    62   0.136E-01    0.171E-02
RMM:   4    -0.101239769623E+03   -0.12398E-04   -0.11253E-04    61   0.589E-02    0.103E-02
RMM:   5    -0.101239774234E+03   -0.46114E-05   -0.22379E-05    43   0.265E-02
  57 F= -.10146969E+03 E0= -.10146969E+03  d E =-.175460E-02
       N       E                     dE             d eps       ncg     rms          rms(c)
DAV:   1    -0.101240817037E+03   -0.10474E-02   -0.77634E-02    72   0.155E+00    0.474E-02
RMM:   2    -0.101240840635E+03   -0.23598E-04   -0.81495E-04    60   0.161E-01    0.300E-02
RMM:   3    -0.101240852887E+03   -0.12252E-04   -0.22931E-04    62   0.764E-02    0.993E-03
RMM:   4    -0.101240857876E+03   -0.49891E-05   -0.34539E-05    46   0.334E-02
  58 F= -.10147094E+03 E0= -.10147094E+03  d E =-.125558E-02
       N       E                     dE             d eps       ncg     rms          rms(c)
DAV:   1    -0.101241429796E+03   -0.57691E-03   -0.17138E-02    88   0.737E-01    0.230E-02
RMM:   2    -0.101241434472E+03   -0.46755E-05   -0.17000E-04    58   0.740E-02    0.145E-02
RMM:   3    -0.101241438051E+03   -0.35790E-05   -0.38175E-05    48   0.345E-02
  59 F= -.10147161E+03 E0= -.10147161E+03  d E =-.662980E-03
       N       E                     dE             d eps       ncg     rms          rms(c)
DAV:   1    -0.101242263607E+03   -0.82914E-03   -0.36683E-02    60   0.107E+00    0.333E-02
RMM:   2    -0.101242277901E+03   -0.14294E-04   -0.39921E-04    60   0.113E-01    0.214E-02
RMM:   3    -0.101242285364E+03   -0.74631E-05   -0.10871E-04    60   0.535E-02    0.715E-03
RMM:   4    -0.101242288300E+03   -0.29365E-05   -0.16984E-05    40   0.236E-02
  60 F= -.10147258E+03 E0= -.10147258E+03  d E =-.968146E-03
       N       E                     dE             d eps       ncg     rms          rms(c)
DAV:   1    -0.101242614607E+03   -0.32924E-03   -0.42028E-03    72   0.387E-01    0.126E-02
RMM:   2    -0.101242618059E+03   -0.34527E-05   -0.50936E-05    49   0.409E-02
  61 F= -.10147295E+03 E0= -.10147295E+03  d E =-.370341E-03
       N       E                     dE             d eps       ncg     rms          rms(c)
DAV:   1    -0.101243944262E+03   -0.13297E-02   -0.82014E-02    60   0.171E+00    0.569E-02
RMM:   2    -0.101243989775E+03   -0.45513E-04   -0.95182E-04    60   0.177E-01    0.354E-02
RMM:   3    -0.101244008110E+03   -0.18335E-04   -0.22508E-04    63   0.806E-02    0.119E-02
RMM:   4    -0.101244012844E+03   -0.47337E-05   -0.37165E-05    47   0.350E-02
  62 F= -.10147452E+03 E0= -.10147452E+03  d E =-.157072E-02
       N       E                     dE             d eps       ncg     rms          rms(c)
DAV:   1    -0.101245282770E+03   -0.12747E-02   -0.93050E-02    60   0.182E+00    0.591E-02
RMM:   2    -0.101245341414E+03   -0.58644E-04   -0.10891E-03    60   0.189E-01    0.366E-02
RMM:   3    -0.101245362284E+03   -0.20870E-04   -0.24471E-04    63   0.844E-02    0.128E-02
RMM:   4    -0.101245368182E+03   -0.58977E-05   -0.42104E-05    49   0.368E-02
  63 F= -.10147605E+03 E0= -.10147605E+03  d E =-.153279E-02
       N       E                     dE             d eps       ncg     rms          rms(c)
DAV:   1    -0.101245311803E+03    0.50481E-04   -0.47562E-04    88   0.124E-01    0.472E-03
RMM:   2    -0.101245313650E+03   -0.18470E-05   -0.56197E-06    38   0.136E-02
  64 F= -.10147599E+03 E0= -.10147599E+03  d E =0.624053E-04
       N       E                     dE             d eps       ncg     rms          rms(c)
DAV:   1    -0.101245274345E+03    0.37458E-04   -0.13038E-04    74   0.668E-02    0.255E-03
RMM:   2    -0.101245275802E+03   -0.14577E-05   -0.13229E-06    35   0.657E-03
  65 F= -.10147594E+03 E0= -.10147594E+03  d E =0.436254E-04
       N       E                     dE             d eps       ncg     rms          rms(c)
DAV:   1    -0.101245426154E+03   -0.15181E-03   -0.17435E-02    60   0.713E-01    0.259E-02
RMM:   2    -0.101245444426E+03   -0.18272E-04   -0.25332E-04    59   0.827E-02    0.159E-02
RMM:   3    -0.101245448742E+03   -0.43158E-05   -0.42025E-05    47   0.351E-02
  66 F= -.10147614E+03 E0= -.10147614E+03  d E =-.196043E-03
       N       E                     dE             d eps       ncg     rms          rms(c)
DAV:   1    -0.101245334655E+03    0.10977E-03   -0.89840E-02    60   0.161E+00    0.571E-02
RMM:   2    -0.101245419103E+03   -0.84448E-04   -0.13133E-03    60   0.192E-01    0.358E-02
RMM:   3    -0.101245435574E+03   -0.16472E-04   -0.22849E-04    61   0.842E-02    0.137E-02
RMM:   4    -0.101245440335E+03   -0.47608E-05   -0.47933E-05    48   0.377E-02
  67 F= -.10147613E+03 E0= -.10147613E+03  d E =0.133805E-04
       N       E                     dE             d eps       ncg     rms          rms(c)
DAV:   1    -0.101245542491E+03   -0.10692E-03   -0.32270E-02    72   0.975E-01    0.335E-02
RMM:   2    -0.101245567502E+03   -0.25011E-04   -0.44381E-04    60   0.113E-01    0.203E-02
RMM:   3    -0.101245573235E+03   -0.57324E-05   -0.83481E-05    56   0.507E-02
  68 F= -.10147628E+03 E0= -.10147628E+03  d E =-.152915E-03
       N       E                     dE             d eps       ncg     rms          rms(c)
DAV:   1    -0.101245163984E+03    0.40352E-03   -0.59532E-01    60   0.415E+00    0.148E-01
RMM:   2    -0.101245762258E+03   -0.59827E-03   -0.85879E-03    60   0.484E-01    0.914E-02
RMM:   3    -0.101245872706E+03   -0.11045E-03   -0.13932E-03    61   0.205E-01    0.355E-02
RMM:   4    -0.101245894912E+03   -0.22205E-04   -0.24864E-04    62   0.905E-02    0.107E-02
RMM:   5    -0.101245901282E+03   -0.63699E-05   -0.62966E-05    48   0.389E-02
  69 F= -.10147667E+03 E0= -.10147667E+03  d E =-.393090E-03
       N       E                     dE             d eps       ncg     rms          rms(c)
DAV:   1    -0.101245464816E+03    0.43010E-03   -0.35105E-01    60   0.319E+00    0.115E-01
RMM:   2    -0.101245822992E+03   -0.35818E-03   -0.51491E-03    60   0.376E-01    0.716E-02
RMM:   3    -0.101245890885E+03   -0.67893E-04   -0.84614E-04    61   0.160E-01    0.274E-02
RMM:   4    -0.101245907035E+03   -0.16151E-04   -0.16148E-04    59   0.715E-02    0.852E-03
RMM:   5    -0.101245912304E+03   -0.52684E-05   -0.33003E-05    44   0.297E-02
  70 F= -.10147674E+03 E0= -.10147674E+03  d E =-.631035E-04
       N       E                     dE             d eps       ncg     rms          rms(c)
DAV:   1    -0.101244537454E+03    0.13696E-02   -0.73508E-01    60   0.461E+00    0.166E-01
RMM:   2    -0.101245284923E+03   -0.74747E-03   -0.10748E-02    60   0.544E-01    0.103E-01
RMM:   3    -0.101245423629E+03   -0.13871E-03   -0.17581E-03    61   0.232E-01    0.396E-02
RMM:   4    -0.101245456182E+03   -0.32553E-04   -0.33440E-04    63   0.103E-01    0.120E-02
RMM:   5    -0.101245466967E+03   -0.10785E-04   -0.77559E-05    51   0.439E-02    0.684E-03
RMM:   6    -0.101245473064E+03   -0.60972E-05   -0.10335E-05    40   0.188E-02
  71 F= -.10147635E+03 E0= -.10147635E+03  d E =0.388120E-03
       N       E                     dE             d eps       ncg     rms          rms(c)
DAV:   1    -0.101245219156E+03    0.24781E-03   -0.58760E-02    60   0.130E+00    0.464E-02
RMM:   2    -0.101245281323E+03   -0.62168E-04   -0.86372E-04    60   0.154E-01    0.288E-02
RMM:   3    -0.101245294708E+03   -0.13384E-04   -0.13995E-04    58   0.653E-02    0.112E-02
RMM:   4    -0.101245300625E+03   -0.59169E-05   -0.26075E-05    43   0.287E-02
  72 F= -.10147618E+03 E0= -.10147618E+03  d E =0.165805E-03
       N       E                     dE             d eps       ncg     rms          rms(c)
DAV:   1    -0.101245178821E+03    0.11589E-03   -0.15316E-02    60   0.664E-01    0.238E-02
RMM:   2    -0.101245195919E+03   -0.17097E-04   -0.22843E-04    58   0.795E-02    0.151E-02
RMM:   3    -0.101245200986E+03   -0.50678E-05   -0.38382E-05    47   0.340E-02
  73 F= -.10147608E+03 E0= -.10147608E+03  d E =0.998592E-04
       N       E                     dE             d eps       ncg     rms          rms(c)
DAV:   1    -0.101244792632E+03    0.40329E-03   -0.99204E-02    60   0.169E+00    0.600E-02
RMM:   2    -0.101244893982E+03   -0.10135E-03   -0.14583E-03    60   0.201E-01    0.376E-02
RMM:   3    -0.101244912756E+03   -0.18774E-04   -0.23783E-04    61   0.859E-02    0.144E-02
RMM:   4    -0.101244918435E+03   -0.56790E-05   -0.46982E-05    47   0.384E-02
  74 F= -.10147579E+03 E0= -.10147579E+03  d E =0.293435E-03
       N       E                     dE             d eps       ncg     rms          rms(c)
DAV:   1    -0.101244654181E+03    0.25857E-03   -0.49150E-02    60   0.119E+00    0.418E-02
RMM:   2    -0.101244704906E+03   -0.50725E-04   -0.73637E-04    60   0.143E-01    0.266E-02
RMM:   3    -0.101244715119E+03   -0.10213E-04   -0.12350E-04    59   0.609E-02    0.107E-02
RMM:   4    -0.101244718458E+03   -0.33389E-05   -0.21178E-05    42   0.259E-02
  75 F= -.10147557E+03 E0= -.10147557E+03  d E =0.217504E-03
       N       E                     dE             d eps       ncg     rms          rms(c)
DAV:   1    -0.101244567850E+03    0.14727E-03   -0.22920E-02    60   0.813E-01    0.281E-02
RMM:   2    -0.101244590159E+03   -0.22309E-04   -0.33127E-04    60   0.965E-02    0.178E-02
RMM:   3    -0.101244595200E+03   -0.50409E-05   -0.55816E-05    48   0.417E-02
  76 F= -.10147543E+03 E0= -.10147543E+03  d E =0.144392E-03
       N       E                     dE             d eps       ncg     rms          rms(c)
DAV:   1    -0.101244105876E+03    0.48428E-03   -0.15122E-01    60   0.209E+00    0.720E-02
RMM:   2    -0.101244249815E+03   -0.14394E-03   -0.21841E-03    60   0.248E-01    0.453E-02
RMM:   3    -0.101244277345E+03   -0.27529E-04   -0.37323E-04    62   0.107E-01    0.177E-02
RMM:   4    -0.101244284866E+03   -0.75216E-05   -0.69171E-05    49   0.465E-02
  77 F= -.10147505E+03 E0= -.10147505E+03  d E =0.373483E-03
       N       E                     dE             d eps       ncg     rms          rms(c)
DAV:   1    -0.101244251679E+03    0.25666E-04   -0.95999E-03    72   0.535E-01    0.178E-02
RMM:   2    -0.101244260956E+03   -0.92774E-05   -0.14186E-04    55   0.641E-02    0.119E-02
RMM:   3    -0.101244263867E+03   -0.29105E-05   -0.24303E-05    46   0.281E-02
  78 F= -.10147500E+03 E0= -.10147500E+03  d E =0.540015E-04
       N       E                     dE             d eps       ncg     rms          rms(c)
DAV:   1    -0.101244288830E+03   -0.27874E-04   -0.72679E-05    82   0.508E-02    0.265E-03
RMM:   2    -0.101244289701E+03   -0.87074E-06   -0.82960E-07    31   0.556E-03
  79 F= -.10147502E+03 E0= -.10147502E+03  d E =-.204307E-04
       N       E                     dE             d eps       ncg     rms          rms(c)
DAV:   1    -0.101244223136E+03    0.65694E-04   -0.18529E-02    60   0.754E-01    0.233E-02
RMM:   2    -0.101244237128E+03   -0.13992E-04   -0.23439E-04    60   0.833E-02    0.144E-02
RMM:   3    -0.101244241456E+03   -0.43280E-05   -0.44201E-05    47   0.371E-02
  80 F= -.10147503E+03 E0= -.10147503E+03  d E =-.155658E-04
       N       E                     dE             d eps       ncg     rms          rms(c)
DAV:   1    -0.101244305075E+03   -0.67947E-04   -0.39946E-01    60   0.350E+00    0.108E-01
RMM:   2    -0.101244570298E+03   -0.26522E-03   -0.49792E-03    60   0.384E-01    0.659E-02
RMM:   3    -0.101244624450E+03   -0.54151E-04   -0.94862E-04    62   0.171E-01    0.265E-02
RMM:   4    -0.101244644971E+03   -0.20521E-04   -0.19099E-04    64   0.752E-02    0.114E-02
RMM:   5    -0.101244648097E+03   -0.31265E-05   -0.26705E-05    43   0.306E-02
  81 F= -.10147513E+03 E0= -.10147513E+03  d E =-.964621E-04
       N       E                     dE             d eps       ncg     rms          rms(c)
DAV:   1    -0.101244788384E+03   -0.14341E-03   -0.13164E-02    72   0.642E-01    0.197E-02
RMM:   2    -0.101244797033E+03   -0.86485E-05   -0.17214E-04    60   0.731E-02    0.124E-02
RMM:   3    -0.101244799723E+03   -0.26901E-05   -0.35565E-05    47   0.335E-02
  82 F= -.10147522E+03 E0= -.10147522E+03  d E =-.856634E-04
       N       E                     dE             d eps       ncg     rms          rms(c)
DAV:   1    -0.101244796731E+03    0.30216E-06   -0.27479E-04    88   0.905E-02    0.354E-03
RMM:   2    -0.101244797598E+03   -0.86743E-06   -0.30968E-06    38   0.920E-03
  83 F= -.10147522E+03 E0= -.10147522E+03  d E =-.365743E-05
       N       E                     dE             d eps       ncg     rms          rms(c)
DAV:   1    -0.101244886125E+03   -0.89394E-04   -0.24718E-03    72   0.280E-01    0.807E-03
RMM:   2    -0.101244887898E+03   -0.17734E-05   -0.29379E-05    44   0.300E-02
  84 F= -.10147528E+03 E0= -.10147528E+03  d E =-.585862E-04
       N       E                     dE             d eps       ncg     rms          rms(c)
DAV:   1    -0.101245605148E+03   -0.71902E-03   -0.15473E-01    60   0.223E+00    0.687E-02
RMM:   2    -0.101245680386E+03   -0.75237E-04   -0.18490E-03    60   0.241E-01    0.426E-02
RMM:   3    -0.101245704149E+03   -0.23763E-04   -0.42054E-04    62   0.111E-01    0.156E-02
RMM:   4    -0.101245712776E+03   -0.86275E-05   -0.75647E-05    56   0.487E-02
  85 F= -.10147584E+03 E0= -.10147584E+03  d E =-.559047E-03
       N       E                     dE             d eps       ncg     rms          rms(c)
DAV:   1    -0.101246107526E+03   -0.40338E-03   -0.21171E-02    60   0.834E-01    0.257E-02
RMM:   2    -0.101246117951E+03   -0.10424E-04   -0.25900E-04    60   0.915E-02    0.164E-02
RMM:   3    -0.101246121955E+03   -0.40043E-05   -0.57828E-05    53   0.417E-02
  86 F= -.10147613E+03 E0= -.10147613E+03  d E =-.296714E-03
       N       E                     dE             d eps       ncg     rms          rms(c)
DAV:   1    -0.101247131253E+03   -0.10133E-02   -0.13667E-01    60   0.211E+00    0.639E-02
RMM:   2    -0.101247198752E+03   -0.67499E-04   -0.16243E-03    60   0.229E-01    0.398E-02
RMM:   3    -0.101247222238E+03   -0.23486E-04   -0.37413E-04    62   0.105E-01    0.145E-02
RMM:   4    -0.101247231026E+03   -0.87880E-05   -0.71102E-05    56   0.467E-02
  87 F= -.10147697E+03 E0= -.10147697E+03  d E =-.830381E-03
       N       E                     dE             d eps       ncg     rms          rms(c)
DAV:   1    -0.101247369236E+03   -0.14700E-03   -0.87373E-04    88   0.179E-01    0.774E-03
RMM:   2    -0.101247370435E+03   -0.11993E-05   -0.96140E-06    38   0.184E-02
  88 F= -.10147708E+03 E0= -.10147708E+03  d E =-.111609E-03
       N       E                     dE             d eps       ncg     rms          rms(c)
DAV:   1    -0.101247352517E+03    0.16719E-04   -0.12816E-04    72   0.628E-02    0.258E-03
RMM:   2    -0.101247353636E+03   -0.11194E-05   -0.18451E-06    34   0.761E-03
  89 F= -.10147707E+03 E0= -.10147707E+03  d E =0.110660E-04
       N       E                     dE             d eps       ncg     rms          rms(c)
DAV:   1    -0.101247552145E+03   -0.19963E-03   -0.12411E-02    60   0.615E-01    0.193E-02
RMM:   2    -0.101247560532E+03   -0.83871E-05   -0.16151E-04    58   0.694E-02    0.119E-02
RMM:   3    -0.101247562753E+03   -0.22206E-05   -0.30676E-05    46   0.311E-02
  90 F= -.10147722E+03 E0= -.10147722E+03  d E =-.152154E-03
       N       E                     dE             d eps       ncg     rms          rms(c)
DAV:   1    -0.101247530723E+03    0.29810E-04   -0.81803E-04    72   0.163E-01    0.689E-03
RMM:   2    -0.101247531954E+03   -0.12309E-05   -0.13396E-05    39   0.205E-02
  91 F= -.10147719E+03 E0= -.10147719E+03  d E =0.289283E-04
       N       E                     dE             d eps       ncg     rms          rms(c)
DAV:   1    -0.101247268321E+03    0.26240E-03   -0.96949E-02    60   0.172E+00    0.576E-02
RMM:   2    -0.101247346335E+03   -0.78013E-04   -0.13227E-03    60   0.199E-01    0.357E-02
RMM:   3    -0.101247359447E+03   -0.13113E-04   -0.21606E-04    60   0.877E-02    0.128E-02
RMM:   4    -0.101247365927E+03   -0.64796E-05   -0.55323E-05    49   0.410E-02
  92 F= -.10147711E+03 E0= -.10147711E+03  d E =0.808985E-04
       N       E                     dE             d eps       ncg     rms          rms(c)
DAV:   1    -0.101247422583E+03   -0.63135E-04   -0.12932E-01    72   0.202E+00    0.738E-02
RMM:   2    -0.101247532799E+03   -0.11022E-03   -0.18311E-03    60   0.237E-01    0.461E-02
RMM:   3    -0.101247551410E+03   -0.18611E-04   -0.29828E-04    60   0.104E-01    0.155E-02
RMM:   4    -0.101247559473E+03   -0.80630E-05   -0.77661E-05    56   0.487E-02
  93 F= -.10147731E+03 E0= -.10147731E+03  d E =-.198279E-03
       N       E                     dE             d eps       ncg     rms          rms(c)
DAV:   1    -0.101247490300E+03    0.61110E-04   -0.70068E-02    72   0.148E+00    0.529E-02
RMM:   2    -0.101247550795E+03   -0.60495E-04   -0.10065E-03    60   0.175E-01    0.333E-02
RMM:   3    -0.101247560603E+03   -0.98083E-05   -0.16690E-04    60   0.777E-02    0.109E-02
RMM:   4    -0.101247565515E+03   -0.49117E-05   -0.41355E-05    47   0.362E-02
  94 F= -.10147734E+03 E0= -.10147734E+03  d E =-.361065E-04
       N       E                     dE             d eps       ncg     rms          rms(c)
DAV:   1    -0.101247544889E+03    0.15715E-04   -0.11772E-01    60   0.195E+00    0.711E-02
RMM:   2    -0.101247644139E+03   -0.99250E-04   -0.16437E-03    60   0.227E-01    0.443E-02
RMM:   3    -0.101247660413E+03   -0.16274E-04   -0.27166E-04    60   0.999E-02    0.139E-02
RMM:   4    -0.101247668469E+03   -0.80557E-05   -0.69975E-05    55   0.467E-02
  95 F= -.10147744E+03 E0= -.10147744E+03  d E =-.975287E-04
       N       E                     dE             d eps       ncg     rms          rms(c)
DAV:   1    -0.101247664027E+03   -0.36132E-05   -0.31263E-02    72   0.101E+00    0.371E-02
RMM:   2    -0.101247690553E+03   -0.26527E-04   -0.44428E-04    60   0.119E-01    0.234E-02
RMM:   3    -0.101247695775E+03   -0.52218E-05   -0.76425E-05    56   0.530E-02
  96 F= -.10147747E+03 E0= -.10147747E+03  d E =-.292778E-04
       N       E                     dE             d eps       ncg     rms          rms(c)
DAV:   1    -0.101247730110E+03   -0.39557E-04   -0.54445E-03    72   0.429E-01    0.168E-02
RMM:   2    -0.101247735970E+03   -0.58601E-05   -0.82545E-05    56   0.529E-02
  97 F= -.10147750E+03 E0= -.10147750E+03  d E =-.331258E-04
       N       E                     dE             d eps       ncg     rms          rms(c)
DAV:   1    -0.101247792079E+03   -0.61969E-04   -0.15554E-02    60   0.722E-01    0.290E-02
RMM:   2    -0.101247802695E+03   -0.10616E-04   -0.20960E-04    60   0.837E-02    0.184E-02
RMM:   3    -0.101247806055E+03   -0.33599E-05   -0.40965E-05    52   0.384E-02
  98 F= -.10147757E+03 E0= -.10147757E+03  d E =-.642154E-04
       N       E                     dE             d eps       ncg     rms          rms(c)
DAV:   1    -0.101247827628E+03   -0.24933E-04   -0.71301E-03    60   0.486E-01    0.185E-02
RMM:   2    -0.101247834323E+03   -0.66953E-05   -0.10302E-04    58   0.589E-02    0.119E-02
RMM:   3    -0.101247836624E+03   -0.23004E-05   -0.19497E-05    42   0.266E-02
  99 F= -.10147760E+03 E0= -.10147760E+03  d E =-.297227E-04
       N       E                     dE             d eps       ncg     rms          rms(c)
DAV:   1    -0.101247888549E+03   -0.54225E-04   -0.72864E-03    72   0.490E-01    0.190E-02
RMM:   2    -0.101247893790E+03   -0.52417E-05   -0.96071E-05    58   0.574E-02
 100 F= -.10147765E+03 E0= -.10147765E+03  d E =-.548971E-04
       N       E                     dE             d eps       ncg     rms          rms(c)
DAV:   1    -0.101247992659E+03   -0.10411E-03   -0.19156E-02    60   0.793E-01    0.321E-02
RMM:   2    -0.101248002592E+03   -0.99329E-05   -0.23907E-04    60   0.898E-02    0.203E-02
RMM:   3    -0.101248006001E+03   -0.34088E-05   -0.51540E-05    54   0.421E-02
 101 F= -.10147777E+03 E0= -.10147777E+03  d E =-.114942E-03
       N       E                     dE             d eps       ncg     rms          rms(c)
DAV:   1    -0.101248037017E+03   -0.34425E-04   -0.48069E-04    88   0.126E-01    0.555E-03
RMM:   2    -0.101248037963E+03   -0.94634E-06   -0.74982E-06    39   0.158E-02
 102 F= -.10147780E+03 E0= -.10147780E+03  d E =-.375186E-04
       N       E                     dE             d eps       ncg     rms          rms(c)
DAV:   1    -0.101248049111E+03   -0.12094E-04   -0.48884E-05    80   0.416E-02    0.225E-03
RMM:   2    -0.101248049526E+03   -0.41539E-06   -0.74226E-07    27   0.548E-03
 103 F= -.10147782E+03 E0= -.10147782E+03  d E =-.132047E-04
       N       E                     dE             d eps       ncg     rms          rms(c)
DAV:   1    -0.101247878266E+03    0.17084E-03   -0.12629E-02    60   0.643E-01    0.223E-02
RMM:   2    -0.101247886752E+03   -0.84857E-05   -0.16235E-04    60   0.720E-02    0.139E-02
RMM:   3    -0.101247888783E+03   -0.20309E-05   -0.28235E-05    46   0.314E-02
 104 F= -.10147763E+03 E0= -.10147763E+03  d E =0.184977E-03
       N       E                     dE             d eps       ncg     rms          rms(c)
DAV:   1    -0.101248233332E+03   -0.34658E-03   -0.88277E-02    60   0.170E+00    0.584E-02
RMM:   2    -0.101248294103E+03   -0.60771E-04   -0.11147E-03    60   0.188E-01    0.361E-02
RMM:   3    -0.101248306666E+03   -0.12564E-04   -0.18474E-04    60   0.813E-02    0.117E-02
RMM:   4    -0.101248312023E+03   -0.53564E-05   -0.47347E-05    49   0.379E-02
 105 F= -.10147812E+03 E0= -.10147812E+03  d E =-.486849E-03
       N       E                     dE             d eps       ncg     rms          rms(c)
DAV:   1    -0.101248568282E+03   -0.26162E-03   -0.47509E-02    60   0.124E+00    0.438E-02
RMM:   2    -0.101248603812E+03   -0.35530E-04   -0.64437E-04    60   0.142E-01    0.275E-02
RMM:   3    -0.101248612343E+03   -0.85311E-05   -0.11809E-04    62   0.622E-02    0.917E-03
RMM:   4    -0.101248614980E+03   -0.26368E-05   -0.23894E-05    43   0.277E-02
 106 F= -.10147846E+03 E0= -.10147846E+03  d E =-.345945E-03
       N       E                     dE             d eps       ncg     rms          rms(c)
DAV:   1    -0.101248450608E+03    0.16174E-03   -0.12547E-02    72   0.640E-01    0.222E-02
RMM:   2    -0.101248459474E+03   -0.88660E-05   -0.15423E-04    60   0.702E-02    0.136E-02
RMM:   3    -0.101248462231E+03   -0.27576E-05   -0.25466E-05    44   0.301E-02
 107 F= -.10147829E+03 E0= -.10147829E+03  d E =0.176088E-03
       N       E                     dE             d eps       ncg     rms          rms(c)
DAV:   1    -0.101248539981E+03   -0.80507E-04   -0.33379E-03    72   0.326E-01    0.111E-02
RMM:   2    -0.101248542584E+03   -0.26031E-05   -0.41166E-05    43   0.348E-02
 108 F= -.10147838E+03 E0= -.10147838E+03  d E =-.907979E-04
