 vasp.6.3.2 27Jun22 (build Oct 05 2023 17:59:42) gamma-only                     
  
 executed on             LinuxIFC date 2024.04.05  18:28:44
 running on   18 total cores
 each image running on    2 cores
 distrk:  each k-point on    2 cores,    1 groups
 distr:  one band on NCORE=   1 cores,    2 groups


--------------------------------------------------------------------------------------------------------


 INCAR:
   ENCUT = 400.000000
   SIGMA = 0.050000
   ALGO = Fast
   GGA = PE
   ISMEAR = 0
   ISPIN = 1
   IVDW = 11
   LCHARG = .FALSE.
   LWAVE = .FALSE.
   EDIFF = 1E-05
   EDIFFG = -0.05
   NSW = 5000
   IBRION = 1
   SPRING = -5
   POTIM = 0.1
   PREC = NORMAL
   IMAGES = 9
   LCLIMB = .TRUE.

 POTCAR:    PAW_PBE C 08Apr2002                   
 POTCAR:    PAW_PBE H 15Jun2001                   
 POTCAR:    PAW_PBE N 08Apr2002                   
 POTCAR:    PAW_PBE C 08Apr2002                   
   SHA256 =  253f7b50bb8d59471dbedb8285d89021f4a42ed1a2c5d38a03a736e69125dd95 C/POTCAR              
   COPYR  = (c) Copyright 08Apr2002 Georg Kresse                                                    
   COPYR  = This file is part of the software VASP. Any use, copying, and all other rights are regul
   COPYR  = If you do not have a valid VASP license, you may not use, copy or distribute this file. 
   VRHFIN =C: s2p2                                                                                  
   LEXCH  = PE                                                                                      
   EATOM  =   147.1560 eV,   10.8157 Ry                                                             
                                                                                                    
   TITEL  = PAW_PBE C 08Apr2002                                                                     
   LULTRA =        F    use ultrasoft PP ?                                                          
   IUNSCR =        1    unscreen: 0-lin 1-nonlin 2-no                                               
   RPACOR =    1.200    partial core radius                                                         
   POMASS =   12.011; ZVAL   =    4.000    mass and valenz                                          
   RCORE  =    1.500    outmost cutoff radius                                                       
   RWIGS  =    1.630; RWIGS  =    0.863    wigner-seitz radius (au A)                               
   ENMAX  =  400.000; ENMIN  =  300.000 eV                                                          
   ICORE  =        2    local potential                                                             
   LCOR   =        T    correct aug charges                                                         
   LPAW   =        T    paw PP                                                                      
   EAUG   =  644.873                                                                                
   DEXC   =    0.000                                                                                
   RMAX   =    1.529    core radius for proj-oper                                                   
   RAUG   =    1.300    factor for augmentation sphere                                              
   RDEP   =    1.501    radius for radial grids                                                     
   RDEPT  =    1.300    core radius for aug-charge                                                  
                                                                                                    
   Atomic configuration                                                                             
    4 entries                                                                                       
     n  l   j            E        occ.                                                              
     1  0  0.50      -273.3789   2.0000                                                             
     2  0  0.50       -13.7508   2.0000                                                             
     2  1  0.50        -5.2854   2.0000                                                             
     3  2  1.50        -5.4423   0.0000                                                             
   Description                                                                                      
     l       E           TYP  RCUT    TYP  RCUT                                                     
     0    -13.7508458     23  1.200                                                                 
     0     -8.2022199     23  1.200                                                                 
     1     -5.2854383     23  1.500                                                                 
     1     34.0145650     23  1.500                                                                 
     2     -5.4423304      7  1.500                                                                 
  local pseudopotential read in
  partial core-charges read in
  partial kinetic energy density read in
  atomic valenz-charges read in
  non local Contribution for L=           0  read in
    real space projection operators read in
  non local Contribution for L=           0  read in
    real space projection operators read in
  non local Contribution for L=           1  read in
    real space projection operators read in
  non local Contribution for L=           1  read in
    real space projection operators read in
    PAW grid and wavefunctions read in
 
   number of l-projection  operators is LMAX  =           4
   number of lm-projection operators is LMMAX =           8
 
 POTCAR:    PAW_PBE H 15Jun2001                   
   SHA256 =  030f79b5d3ab3cf0e668861823c8fb652ff669f3e15e46930bd03bfd63a607b6 H/POTCAR              
   COPYR  = (c) Copyright 15Jun2001 Georg Kresse                                                    
   COPYR  = This file is part of the software VASP. Any use, copying, and all other rights are regul
   COPYR  = If you do not have a valid VASP license, you may not use, copy or distribute this file. 
   VRHFIN =H: ultrasoft test                                                                        
   LEXCH  = PE                                                                                      
   EATOM  =    12.4884 eV,    0.9179 Ry                                                             
                                                                                                    
   TITEL  = PAW_PBE H 15Jun2001                                                                     
   LULTRA =        F    use ultrasoft PP ?                                                          
   IUNSCR =        0    unscreen: 0-lin 1-nonlin 2-no                                               
   RPACOR =    0.000    partial core radius                                                         
   POMASS =    1.000; ZVAL   =    1.000    mass and valenz                                          
   RCORE  =    1.100    outmost cutoff radius                                                       
   RWIGS  =    0.700; RWIGS  =    0.370    wigner-seitz radius (au A)                               
   ENMAX  =  250.000; ENMIN  =  200.000 eV                                                          
   RCLOC  =    0.701    cutoff for local pot                                                        
   LCOR   =        T    correct aug charges                                                         
   LPAW   =        T    paw PP                                                                      
   EAUG   =  400.000                                                                                
   RMAX   =    1.123    core radius for proj-oper                                                   
   RAUG   =    1.200    factor for augmentation sphere                                              
   RDEP   =    1.112    radius for radial grids                                                     
   RDEPT  =    0.926    core radius for aug-charge                                                  
                                                                                                    
   Atomic configuration                                                                             
    2 entries                                                                                       
     n  l   j            E        occ.                                                              
     1  0  0.50        -6.4927   1.0000                                                             
     2  1  0.50        -3.4015   0.0000                                                             
   Description                                                                                      
     l       E           TYP  RCUT    TYP  RCUT                                                     
     0     -6.4927494     23  1.100                                                                 
     0      6.8029130     23  1.100                                                                 
     1     -4.0817478     23  1.100                                                                 
  local pseudopotential read in
  atomic valenz-charges read in
  non local Contribution for L=           0  read in
    real space projection operators read in
  non local Contribution for L=           0  read in
    real space projection operators read in
  non local Contribution for L=           1  read in
    real space projection operators read in
    PAW grid and wavefunctions read in
 
   number of l-projection  operators is LMAX  =           3
   number of lm-projection operators is LMMAX =           5
 
 POTCAR:    PAW_PBE N 08Apr2002                   
   SHA256 =  e053789ff3a61a86a1b75d8a110fcc91f86041011e7b0817c7c99e4e8a6349d7 N/POTCAR              
   COPYR  = (c) Copyright 08Apr2002 Georg Kresse                                                    
   COPYR  = This file is part of the software VASP. Any use, copying, and all other rights are regul
   COPYR  = If you do not have a valid VASP license, you may not use, copy or distribute this file. 
   VRHFIN =N: s2p3                                                                                  
   LEXCH  = PE                                                                                      
   EATOM  =   264.5486 eV,   19.4438 Ry                                                             
                                                                                                    
   TITEL  = PAW_PBE N 08Apr2002                                                                     
   LULTRA =        F    use ultrasoft PP ?                                                          
   IUNSCR =        1    unscreen: 0-lin 1-nonlin 2-no                                               
   RPACOR =    1.200    partial core radius                                                         
   POMASS =   14.001; ZVAL   =    5.000    mass and valenz                                          
   RCORE  =    1.500    outmost cutoff radius                                                       
   RWIGS  =    1.400; RWIGS  =    0.741    wigner-seitz radius (au A)                               
   ENMAX  =  400.000; ENMIN  =  300.000 eV                                                          
   ICORE  =        2    local potential                                                             
   LCOR   =        T    correct aug charges                                                         
   LPAW   =        T    paw PP                                                                      
   EAUG   =  627.112                                                                                
   DEXC   =    0.000                                                                                
   RMAX   =    1.529    core radius for proj-oper                                                   
   RAUG   =    1.300    factor for augmentation sphere                                              
   RDEP   =    1.514    radius for radial grids                                                     
   RDEPT  =    1.338    core radius for aug-charge                                                  
                                                                                                    
   Atomic configuration                                                                             
    4 entries                                                                                       
     n  l   j            E        occ.                                                              
     1  0  0.50      -384.7179   2.0000                                                             
     2  0  0.50       -18.5828   2.0000                                                             
     2  1  0.50        -7.0898   3.0000                                                             
     3  2  1.50        -6.8029   0.0000                                                             
   Description                                                                                      
     l       E           TYP  RCUT    TYP  RCUT                                                     
     0    -18.5828119     23  1.200                                                                 
     0    -13.5018863     23  1.200                                                                 
     1     -7.0897853     23  1.500                                                                 
     1      9.5240782     23  1.500                                                                 
     2     -6.8029130      7  1.500                                                                 
  local pseudopotential read in
  partial core-charges read in
  partial kinetic energy density read in
  atomic valenz-charges read in
  non local Contribution for L=           0  read in
    real space projection operators read in
  non local Contribution for L=           0  read in
    real space projection operators read in
  non local Contribution for L=           1  read in
    real space projection operators read in
  non local Contribution for L=           1  read in
    real space projection operators read in
    PAW grid and wavefunctions read in
 
   number of l-projection  operators is LMAX  =           4
   number of lm-projection operators is LMMAX =           8
 
 -----------------------------------------------------------------------------
|                                                                             |
|               ----> ADVICE to this user running VASP <----                  |
|                                                                             |
|     You have a (more or less) 'large supercell' and for larger cells it     |
|     might be more efficient to use real-space projection operators.         |
|     Therefore, try LREAL= Auto in the INCAR file.                           |
|     Mind: For very accurate calculation, you might also keep the            |
|     reciprocal projection scheme (i.e. LREAL=.FALSE.).                      |
|                                                                             |
 -----------------------------------------------------------------------------

  PAW_PBE C 08Apr2002                   :
 energy of atom  1       EATOM= -147.1560
 kinetic energy error for atom=    0.0288 (will be added to EATOM!!)
  PAW_PBE H 15Jun2001                   :
 energy of atom  2       EATOM=  -12.4884
 kinetic energy error for atom=    0.0098 (will be added to EATOM!!)
  PAW_PBE N 08Apr2002                   :
 energy of atom  3       EATOM= -264.5486
 kinetic energy error for atom=    0.0736 (will be added to EATOM!!)
 
 
 POSCAR:  C  H  N
  positions in cartesian coordinates
  No initial velocities read in
 exchange correlation table for  LEXCH =        8
   RHO(1)=    0.500       N(1)  =     2000
   RHO(2)=  100.500       N(2)  =     4000

 VTST: version 4.1, (05/19/21)

 CHAIN: initializing optimizer
 
 OPT: Using VASP QUASI-newton optimizer
 CHAIN: Read ICHAIN            0
 CHAIN: Running the NEB
 NEB:          SPRING     -5.000000
 NEB:          LCLIMB      T
 NEB:     LTANGENTOLD      F
 NEB:           LDNEB      F
 NEB:        LDNEBORG      F
 NEB:        LNEBCELL      F
 NEB:          EFIRST      0.000000
 NEB:           ELAST      0.000000
 
 POSCAR:  C  H  N
  positions in cartesian coordinates
  No initial velocities read in
 
 POSCAR:  C  H  N
  positions in cartesian coordinates
  No initial velocities read in
 
 POSCAR:  C  H  N
  positions in cartesian coordinates
  No initial velocities read in
 
 POSCAR:  C  H  N
  positions in cartesian coordinates
  No initial velocities read in
 


--------------------------------------------------------------------------------------------------------


 ion  position               nearest neighbor table
   1  0.341  0.438  0.574-   8 1.09   4 1.37   2 1.41
   2  0.335  0.530  0.574-  11 1.09   3 1.37   1 1.41
   3  0.406  0.583  0.565-  12 1.09  13 1.09   2 1.37
   4  0.419  0.396  0.560-   9 1.08  10 1.09   1 1.37
   5  0.452  0.441  0.426-  14 1.08  15 1.09   6 1.38
   6  0.453  0.531  0.423-  16 1.08   5 1.38   7 1.42
   7  0.532  0.578  0.424-  17 1.17   6 1.42
   8  0.281  0.402  0.572-   1 1.09
   9  0.479  0.427  0.576-   4 1.08
  10  0.421  0.326  0.550-   4 1.09
  11  0.271  0.559  0.570-   2 1.09
  12  0.472  0.560  0.577-   3 1.09
  13  0.399  0.652  0.557-   3 1.09
  14  0.394  0.406  0.407-   5 1.08
  15  0.513  0.407  0.425-   5 1.09
  16  0.395  0.566  0.406-   6 1.08
  17  0.597  0.617  0.425-   7 1.17
 
  LATTYP: Found a simple cubic cell.
 ALAT       =    15.4022502899
  
  Lattice vectors:
  
 A1 = (  15.4022502899,   0.0000000000,   0.0000000000)
 A2 = (   0.0000000000,  15.4022502899,   0.0000000000)
 A3 = (   0.0000000000,   0.0000000000,  15.4022502899)


Analysis of symmetry for initial positions (statically):
=====================================================================
 Subroutine PRICEL returns:
 Original cell was already a primitive cell.
 

 Routine SETGRP: Setting up the symmetry group for a 
 simple cubic supercell.


 Subroutine GETGRP returns: Found  1 space group operations
 (whereof  1 operations were pure point group operations)
 out of a pool of 48 trial point group operations.


The static configuration has the point symmetry C_1 .


Analysis of symmetry for dynamics (positions and initial velocities):
=====================================================================
 Subroutine PRICEL returns:
 Original cell was already a primitive cell.
 

 Routine SETGRP: Setting up the symmetry group for a 
 simple cubic supercell.


 Subroutine GETGRP returns: Found  1 space group operations
 (whereof  1 operations were pure point group operations)
 out of a pool of 48 trial point group operations.


The dynamic configuration has the point symmetry C_1 .


 Subroutine INISYM returns: Found  1 space group operations
 (whereof  1 operations are pure point group operations),
 and found     1 'primitive' translations


----------------------------------------------------------------------------------------

                                     Primitive cell                                     

  volume of cell :    3653.8653

  direct lattice vectors                    reciprocal lattice vectors
    15.402250290  0.000000000  0.000000000     0.064925578  0.000000000  0.000000000
     0.000000000 15.402250290  0.000000000     0.000000000  0.064925578  0.000000000
     0.000000000  0.000000000 15.402250290     0.000000000  0.000000000  0.064925578

  length of vectors
    15.402250290 15.402250290 15.402250290     0.064925578  0.064925578  0.064925578

  position of ions in fractional coordinates (direct lattice)
     0.341373909  0.437995874  0.573999288
     0.335459770  0.529606911  0.574013544
     0.405990164  0.582656227  0.564567744
     0.418524884  0.395552026  0.560472717
     0.451668029  0.441422499  0.426335339
     0.452715761  0.530947237  0.423164816
     0.531612737  0.578015872  0.423802470
     0.280720929  0.401680404  0.571820571
     0.479381098  0.427119914  0.576002658
     0.421380001  0.325854192  0.550140470
     0.271283957  0.558612826  0.569783824
     0.471533172  0.560187340  0.577428790
     0.398695515  0.652454064  0.556982075
     0.394287336  0.405731501  0.407253906
     0.513155101  0.407058364  0.425214658
     0.394558898  0.566470602  0.405966031
     0.596876766  0.616980271  0.425463722

  ion indices of the primitive-cell ions
   primitive index   ion index
                 1           1
                 2           2
                 3           3
                 4           4
                 5           5
                 6           6
                 7           7
                 8           8
                 9           9
                10          10
                11          11
                12          12
                13          13
                14          14
                15          15
                16          16
                17          17

----------------------------------------------------------------------------------------

 
 
 KPOINTS: KPOINTS created by Atomic Simulation Env

Automatic generation of k-mesh.
 Grid dimensions read from file:
 generate k-points for:    1    1    1

 Generating k-lattice:

  Cartesian coordinates                     Fractional coordinates (reciprocal lattice)
     0.064925578  0.000000000  0.000000000     1.000000000  0.000000000  0.000000000
     0.000000000  0.064925578  0.000000000     0.000000000  1.000000000  0.000000000
     0.000000000  0.000000000  0.064925578     0.000000000  0.000000000  1.000000000

  Length of vectors
     0.064925578  0.064925578  0.064925578

  Shift w.r.t. Gamma in fractional coordinates (k-lattice)
     0.000000000  0.000000000  0.000000000

 
 Subroutine IBZKPT returns following result:
 ===========================================
 
 Found      1 irreducible k-points:
 
 Following reciprocal coordinates:
            Coordinates               Weight
  0.000000  0.000000  0.000000      1.000000
 
 Following cartesian coordinates:
            Coordinates               Weight
  0.000000  0.000000  0.000000      1.000000
 


--------------------------------------------------------------------------------------------------------




 Dimension of arrays:
   k-points           NKPTS =      1   k-points in BZ     NKDIM =      1   number of bands    NBANDS=     30
   number of dos      NEDOS =    301   number of ions     NIONS =     17
   non local maximal  LDIM  =      4   non local SUM 2l+1 LMDIM =      8
   total plane-waves  NPLWV = 512000
   max r-space proj   IRMAX =      1   max aug-charges    IRDMAX=   1924
   dimension x,y,z NGX =    80 NGY =   80 NGZ =   80
   dimension x,y,z NGXF=   160 NGYF=  160 NGZF=  160
   support grid    NGXF=   160 NGYF=  160 NGZF=  160
   ions per type =               7   9   1
   NGX,Y,Z   is equivalent  to a cutoff of   8.63,  8.63,  8.63 a.u.
   NGXF,Y,Z  is equivalent  to a cutoff of  17.27, 17.27, 17.27 a.u.

 SYSTEM =  unknown system                          
 POSCAR =   C  H  N                                

 Startparameter for this run:
   NWRITE =      2    write-flag & timer
   PREC   = normal    normal or accurate (medium, high low for compatibility)
   ISTART =      0    job   : 0-new  1-cont  2-samecut
   ICHARG =      2    charge: 1-file 2-atom 10-const
   ISPIN  =      1    spin polarized calculation?
   LNONCOLLINEAR =      F non collinear calculations
   LSORBIT =      F    spin-orbit coupling
   INIWAV =      1    electr: 0-lowe 1-rand  2-diag
   LASPH  =      F    aspherical Exc in radial PAW
 Electronic Relaxation 1
   ENCUT  =  400.0 eV  29.40 Ry    5.42 a.u.  25.12 25.12 25.12*2*pi/ulx,y,z
   ENINI  =  400.0     initial cutoff
   ENAUG  =  644.9 eV  augmentation charge cutoff
   NELM   =     60;   NELMIN=  2; NELMDL= -5     # of ELM steps 
   EDIFF  = 0.1E-04   stopping-criterion for ELM
   LREAL  =      F    real-space projection
   NLSPLINE    = F    spline interpolate recip. space projectors
   LCOMPAT=      F    compatible to vasp.4.4
   GGA_COMPAT  = T    GGA compatible to vasp.4.4-vasp.4.6
   LMAXPAW     = -100 max onsite density
   LMAXMIX     =    2 max onsite mixed and CHGCAR
   VOSKOWN=      0    Vosko Wilk Nusair interpolation
   ROPT   =    0.00000   0.00000   0.00000
 Ionic relaxation
   EDIFFG = -.5E-01   stopping-criterion for IOM
   NSW    =   5000    number of steps for IOM
   NBLOCK =      1;   KBLOCK =   5000    inner block; outer block 
   IBRION =      1    ionic relax: 0-MD 1-quasi-New 2-CG
   NFREE  =      0    steps in history (QN), initial steepest desc. (CG)
   ISIF   =      2    stress and relaxation
   IWAVPR =     11    prediction:  0-non 1-charg 2-wave 3-comb
   ISYM   =      2    0-nonsym 1-usesym 2-fastsym
   LCORR  =      T    Harris-Foulkes like correction to forces

   POTIM  = 0.1000    time-step for ionic-motion
   TEIN   =    0.0    initial temperature
   TEBEG  =    0.0;   TEEND  =   0.0 temperature during run
   SMASS  =  -3.00    Nose mass-parameter (am)
   estimated Nose-frequenzy (Omega)   =  0.10E-29 period in steps = 0.63E+47 mass=  -0.542E-26a.u.
   SCALEE = 1.0000    scale energy and forces
   NPACO  =    256;   APACO  = 10.0  distance and # of slots for P.C.
   PSTRESS=    0.0 pullay stress

  Mass of Ions in am
   POMASS =  12.01  1.00 14.00
  Ionic Valenz
   ZVAL   =   4.00  1.00  5.00
  Atomic Wigner-Seitz radii
   RWIGS  =  -1.00 -1.00 -1.00
  virtual crystal weights 
   VCA    =   1.00  1.00  1.00
   NELECT =      42.0000    total number of electrons
   NUPDOWN=      -1.0000    fix difference up-down

 DOS related values:
   EMIN   =  10.00;   EMAX   =-10.00  energy-range for DOS
   EFERMI =   0.00
   ISMEAR =     0;   SIGMA  =   0.05  broadening in eV -4-tet -1-fermi 0-gaus

 Electronic relaxation 2 (details)
   IALGO  =     68    algorithm
   LDIAG  =      T    sub-space diagonalisation (order eigenvalues)
   LSUBROT=      F    optimize rotation matrix (better conditioning)
   TURBO    =      0    0=normal 1=particle mesh
   IRESTART =      0    0=no restart 2=restart with 2 vectors
   NREBOOT  =      0    no. of reboots
   NMIN     =      0    reboot dimension
   EREF     =   0.00    reference energy to select bands
   IMIX   =      4    mixing-type and parameters
     AMIX     =   0.40;   BMIX     =  1.00
     AMIX_MAG =   1.60;   BMIX_MAG =  1.00
     AMIN     =   0.10
     WC   =   100.;   INIMIX=   1;  MIXPRE=   1;  MAXMIX= -45

 Intra band minimization:
   WEIMIN = 0.0010     energy-eigenvalue tresh-hold
   EBREAK =  0.83E-07  absolut break condition
   DEPER  =   0.30     relativ break condition  

   TIME   =   0.40     timestep for ELM

  volume/ion in A,a.u.               =     214.93      1450.44
  Fermi-wavevector in a.u.,A,eV,Ry     =   0.369465  0.698188  1.857259  0.136505
  Thomas-Fermi vector in A             =   1.296107
 
 Write flags
   LWAVE        =      F    write WAVECAR
   LDOWNSAMPLE  =      F    k-point downsampling of WAVECAR
   LCHARG       =      F    write CHGCAR
   LVTOT        =      F    write LOCPOT, total local potential
   LVHAR        =      F    write LOCPOT, Hartree potential only
   LELF         =      F    write electronic localiz. function (ELF)
   LORBIT       =      0    0 simple, 1 ext, 2 COOP (PROOUT), +10 PAW based schemes


 Dipole corrections
   LMONO  =      F    monopole corrections only (constant potential shift)
   LDIPOL =      F    correct potential (dipole corrections)
   IDIPOL =      0    1-x, 2-y, 3-z, 4-all directions 
   EPSILON=  1.0000000 bulk dielectric constant

 Exchange correlation treatment:
   GGA     =    PE    GGA type
   LEXCH   =     8    internal setting for exchange type
   LIBXC   =     F    Libxc                    
   VOSKOWN =     0    Vosko Wilk Nusair interpolation
   LHFCALC =     F    Hartree Fock is set to
   LHFONE  =     F    Hartree Fock one center treatment
   AEXX    =    0.0000 exact exchange contribution

 Linear response parameters
   LEPSILON=     F    determine dielectric tensor
   LRPA    =     F    only Hartree local field effects (RPA)
   LNABLA  =     F    use nabla operator in PAW spheres
   LVEL    =     F    velocity operator in full k-point grid
   CSHIFT  =0.1000    complex shift for real part using Kramers Kronig
   OMEGAMAX=  -1.0    maximum frequency
   DEG_THRESHOLD= 0.2000000E-02 threshold for treating states as degnerate
   RTIME   =   -0.100 relaxation time in fs
  (WPLASMAI=    0.000 imaginary part of plasma frequency in eV, 0.658/RTIME)
   DFIELD  = 0.0000000 0.0000000 0.0000000 field for delta impulse in time
 
  Optional k-point grid parameters
   LKPOINTS_OPT  =     F    use optional k-point grid
   KPOINTS_OPT_MODE=     1    mode for optional k-point grid
 
 Orbital magnetization related:
   ORBITALMAG=     F  switch on orbital magnetization
   LCHIMAG   =     F  perturbation theory with respect to B field
   DQ        =  0.001000  dq finite difference perturbation B field
   LLRAUG    =     F  two centre corrections for induced B field



--------------------------------------------------------------------------------------------------------


 quasi-Newton-method for relaxation of ions
 charge density and potential will be updated during run
 non-spin polarized calculation
 RMM-DIIS sequential band-by-band and
  variant of blocked Davidson during initial phase
 perform sub-space diagonalisation
    before iterative eigenvector-optimisation
 modified Broyden-mixing scheme, WC =      100.0
 initial mixing is a Kerker type mixing with AMIX =  0.4000 and BMIX =      1.0000
 Hartree-type preconditioning will be used
 using additional bands            9
 reciprocal scheme for non local part
 use partial core corrections
 calculate Harris-corrections to forces 
   (improved forces if not selfconsistent)
 use gradient corrections 
 use of overlap-Matrix (Vanderbilt PP)
 Gauss-broadening in eV      SIGMA  =   0.05


--------------------------------------------------------------------------------------------------------


  energy-cutoff  :      400.00
  volume of cell :     3653.87
      direct lattice vectors                 reciprocal lattice vectors
    15.402250290  0.000000000  0.000000000     0.064925578  0.000000000  0.000000000
     0.000000000 15.402250290  0.000000000     0.000000000  0.064925578  0.000000000
     0.000000000  0.000000000 15.402250290     0.000000000  0.000000000  0.064925578

  length of vectors
    15.402250290 15.402250290 15.402250290     0.064925578  0.064925578  0.064925578


 
 k-points in units of 2pi/SCALE and weight: KPOINTS created by Atomic Simulation Env
   0.00000000  0.00000000  0.00000000       1.000
 
 k-points in reciprocal lattice and weights: KPOINTS created by Atomic Simulation Env
   0.00000000  0.00000000  0.00000000       1.000
 
 position of ions in fractional coordinates (direct lattice) 
   0.34137391  0.43799587  0.57399929
   0.33545977  0.52960691  0.57401354
   0.40599016  0.58265623  0.56456774
   0.41852488  0.39555203  0.56047272
   0.45166803  0.44142250  0.42633534
   0.45271576  0.53094724  0.42316482
   0.53161274  0.57801587  0.42380247
   0.28072093  0.40168040  0.57182057
   0.47938110  0.42711991  0.57600266
   0.42138000  0.32585419  0.55014047
   0.27128396  0.55861283  0.56978382
   0.47153317  0.56018734  0.57742879
   0.39869552  0.65245406  0.55698208
   0.39428734  0.40573150  0.40725391
   0.51315510  0.40705836  0.42521466
   0.39455890  0.56647060  0.40596603
   0.59687677  0.61698027  0.42546372
 
 position of ions in cartesian coordinates  (Angst):
   5.25792639  6.74612207  8.84088071
   5.16683535  8.15713819  8.84110028
   6.25316212  8.97421704  8.69561370
   6.44622501  6.09239131  8.63254107
   6.95670403  6.79889982  6.56652361
   6.97284146  8.17778224  6.51769041
   8.18803243  8.90274514  6.52751172
   4.32373401  6.18678212  8.80732355
   7.38354765  6.57860782  8.87173710
   6.49020024  5.01888783  8.47340121
   4.17838340  8.60389457  8.77595306
   7.26267193  8.62814561  8.89370275
   6.14080812 10.04926079  8.57877733
   6.07291223  6.24917812  6.27262659
   7.90374330  6.26961481  6.54926260
   6.07709490  8.72492200  6.25279041
   9.19324535  9.50288455  6.55309873
 


--------------------------------------------------------------------------------------------------------


 use serial FFT for orbitals x direction half grid
 k-point   1 :   0.0000 0.0000 0.0000  plane waves:   33270

 maximum and minimum number of plane-waves per node :     33270    33270

 maximum number of plane-waves:     33270
 maximum index in each direction: 
   IXMAX=   25   IYMAX=   25   IZMAX=   25
   IXMIN=    0   IYMIN=  -25   IZMIN=  -25


 serial   3D FFT for wavefunctions
 parallel 3D FFT for charge:
    minimum data exchange during FFTs selected (reduces bandwidth)


 total amount of memory used by VASP MPI-rank0   277942. kBytes
=======================================================================

   base      :      30000. kBytes
   nonl-proj :      15437. kBytes
   fftplans  :      71598. kBytes
   grid      :     152883. kBytes
   one-center:         26. kBytes
   wavefun   :       7998. kBytes
 
     INWAV:  cpu time      0.0000: real time      0.0000
 Broyden mixing: mesh for mixing (old mesh)
   NGX = 51   NGY = 51   NGZ = 51
  (NGX  =160   NGY  =160   NGZ  =160)
  gives a total of 132651 points

 initial charge density was supplied:
 charge density of overlapping atoms calculated
 number of electron      42.0000000 magnetization 
 keeping initial charge density in first step


--------------------------------------------------------------------------------------------------------


 Maximum index for augmentation-charges          834 (set IRDMAX)


--------------------------------------------------------------------------------------------------------


 First call to EWALD:  gamma=   0.115
 Maximum number of real-space cells 3x 3x 3
 Maximum number of reciprocal cells 3x 3x 3

    FEWALD:  cpu time      0.0012: real time      0.0012


--------------------------------------- Iteration      1(   1)  ---------------------------------------


    POTLOK:  cpu time      2.1643: real time      2.1645
    SETDIJ:  cpu time      0.0056: real time      0.0056
     EDDAV:  cpu time      3.6871: real time      3.6873
       DOS:  cpu time      0.0006: real time      0.0092
    --------------------------------------------
      LOOP:  cpu time      5.8577: real time      5.8666

 eigenvalue-minimisations  :    76
 total energy-change (2. order) : 0.3308255E+03  (-0.1016144E+04)
 number of electron      42.0000000 magnetization 
 augmentation part       42.0000000 magnetization 

 Free energy of the ion-electron system (eV)
  ---------------------------------------------------
  alpha Z        PSCENC =         2.15216506
  Ewald energy   TEWEN  =      2396.72110587
  -Hartree energ DENC   =     -3339.03732737
  -exchange      EXHF   =         0.00000000
  -V(xc)+E(xc)   XCENC  =       130.13253643
  PAW double counting   =       983.79330320     -989.05002801
  entropy T*S    EENTRO =        -0.00420217
  eigenvalues    EBANDS =      -260.55536129
  atomic energy  EATOM  =      1406.67326350
  Solvation  Ediel_sol  =         0.00000000
  ---------------------------------------------------
  free energy    TOTEN  =       330.82545522 eV

  energy without entropy =      330.82965739  energy(sigma->0) =      330.82755630


--------------------------------------------------------------------------------------------------------




--------------------------------------- Iteration      1(   2)  ---------------------------------------


     EDDAV:  cpu time      4.5250: real time      4.5344
       DOS:  cpu time      0.0002: real time      0.0003
    --------------------------------------------
      LOOP:  cpu time      4.5252: real time      4.5347

 eigenvalue-minimisations  :   104
 total energy-change (2. order) :-0.2955710E+03  (-0.2858872E+03)
 number of electron      42.0000000 magnetization 
 augmentation part       42.0000000 magnetization 

 Free energy of the ion-electron system (eV)
  ---------------------------------------------------
  alpha Z        PSCENC =         2.15216506
  Ewald energy   TEWEN  =      2396.72110587
  -Hartree energ DENC   =     -3339.03732737
  -exchange      EXHF   =         0.00000000
  -V(xc)+E(xc)   XCENC  =       130.13253643
  PAW double counting   =       983.79330320     -989.05002801
  entropy T*S    EENTRO =        -0.00000000
  eigenvalues    EBANDS =      -556.13060404
  atomic energy  EATOM  =      1406.67326350
  Solvation  Ediel_sol  =         0.00000000
  ---------------------------------------------------
  free energy    TOTEN  =        35.25441465 eV

  energy without entropy =       35.25441465  energy(sigma->0) =       35.25441465


--------------------------------------------------------------------------------------------------------




--------------------------------------- Iteration      1(   3)  ---------------------------------------


     EDDAV:  cpu time      3.5891: real time      3.5897
       DOS:  cpu time      0.0005: real time      0.0005
    --------------------------------------------
      LOOP:  cpu time      3.5896: real time      3.5902

 eigenvalue-minimisations  :    72
 total energy-change (2. order) :-0.1310015E+03  (-0.1306693E+03)
 number of electron      42.0000000 magnetization 
 augmentation part       42.0000000 magnetization 

 Free energy of the ion-electron system (eV)
  ---------------------------------------------------
  alpha Z        PSCENC =         2.15216506
  Ewald energy   TEWEN  =      2396.72110587
  -Hartree energ DENC   =     -3339.03732737
  -exchange      EXHF   =         0.00000000
  -V(xc)+E(xc)   XCENC  =       130.13253643
  PAW double counting   =       983.79330320     -989.05002801
  entropy T*S    EENTRO =        -0.00000000
  eigenvalues    EBANDS =      -687.13208483
  atomic energy  EATOM  =      1406.67326350
  Solvation  Ediel_sol  =         0.00000000
  ---------------------------------------------------
  free energy    TOTEN  =       -95.74706615 eV

  energy without entropy =      -95.74706615  energy(sigma->0) =      -95.74706615


--------------------------------------------------------------------------------------------------------




--------------------------------------- Iteration      1(   4)  ---------------------------------------


     EDDAV:  cpu time      3.6109: real time      3.6114
       DOS:  cpu time      0.0004: real time      0.0005
    --------------------------------------------
      LOOP:  cpu time      3.6113: real time      3.6119

 eigenvalue-minimisations  :    72
 total energy-change (2. order) :-0.1575389E+02  (-0.1570784E+02)
 number of electron      42.0000000 magnetization 
 augmentation part       42.0000000 magnetization 

 Free energy of the ion-electron system (eV)
  ---------------------------------------------------
  alpha Z        PSCENC =         2.15216506
  Ewald energy   TEWEN  =      2396.72110587
  -Hartree energ DENC   =     -3339.03732737
  -exchange      EXHF   =         0.00000000
  -V(xc)+E(xc)   XCENC  =       130.13253643
  PAW double counting   =       983.79330320     -989.05002801
  entropy T*S    EENTRO =        -0.00000000
  eigenvalues    EBANDS =      -702.88597536
  atomic energy  EATOM  =      1406.67326350
  Solvation  Ediel_sol  =         0.00000000
  ---------------------------------------------------
  free energy    TOTEN  =      -111.50095668 eV

  energy without entropy =     -111.50095668  energy(sigma->0) =     -111.50095668


--------------------------------------------------------------------------------------------------------




--------------------------------------- Iteration      1(   5)  ---------------------------------------


     EDDAV:  cpu time      4.2254: real time      4.2439
       DOS:  cpu time      0.0004: real time      0.0004
    CHARGE:  cpu time      0.3831: real time      0.3831
    MIXING:  cpu time      0.0842: real time      0.0842
    --------------------------------------------
      LOOP:  cpu time      4.6931: real time      4.7117

 eigenvalue-minimisations  :    88
 total energy-change (2. order) :-0.3625739E+00  (-0.3615518E+00)
 number of electron      41.9999997 magnetization 
 augmentation part        1.1861035 magnetization 

 Broyden mixing:
  rms(total) = 0.17116E+01    rms(broyden)= 0.17109E+01
  rms(prec ) = 0.19665E+01
  weight for this iteration     100.00

 Free energy of the ion-electron system (eV)
  ---------------------------------------------------
  alpha Z        PSCENC =         2.15216506
  Ewald energy   TEWEN  =      2396.72110587
  -Hartree energ DENC   =     -3339.03732737
  -exchange      EXHF   =         0.00000000
  -V(xc)+E(xc)   XCENC  =       130.13253643
  PAW double counting   =       983.79330320     -989.05002801
  entropy T*S    EENTRO =        -0.00000000
  eigenvalues    EBANDS =      -703.24854923
  atomic energy  EATOM  =      1406.67326350
  Solvation  Ediel_sol  =         0.00000000
  ---------------------------------------------------
  free energy    TOTEN  =      -111.86353054 eV

  energy without entropy =     -111.86353054  energy(sigma->0) =     -111.86353054


--------------------------------------------------------------------------------------------------------




--------------------------------------- Iteration      1(   6)  ---------------------------------------


    POTLOK:  cpu time      2.1184: real time      2.1192
    SETDIJ:  cpu time      0.0230: real time      0.0230
    EDDIAG:  cpu time      0.6245: real time      0.6246
  RMM-DIIS:  cpu time      2.8917: real time      2.8923
    ORTHCH:  cpu time      0.0253: real time      0.0344
       DOS:  cpu time      0.0003: real time      0.0003
    CHARGE:  cpu time      0.3853: real time      0.3853
    MIXING:  cpu time      0.1050: real time      0.1050
    --------------------------------------------
      LOOP:  cpu time      6.1735: real time      6.1841

 eigenvalue-minimisations  :    60
 total energy-change (2. order) : 0.8401982E+01  (-0.1171060E+01)
 number of electron      41.9999997 magnetization 
 augmentation part        1.0976488 magnetization 

 Broyden mixing:
  rms(total) = 0.93045E+00    rms(broyden)= 0.93035E+00
  rms(prec ) = 0.10517E+01
  weight for this iteration     100.00

 eigenvalues of (default mixing * dielectric matrix)
  average eigenvalue GAMMA=   1.7141
  1.7141

 Free energy of the ion-electron system (eV)
  ---------------------------------------------------
  alpha Z        PSCENC =         2.15216506
  Ewald energy   TEWEN  =      2396.72110587
  -Hartree energ DENC   =     -3419.79896004
  -exchange      EXHF   =         0.00000000
  -V(xc)+E(xc)   XCENC  =       134.33167377
  PAW double counting   =      1766.68512254    -1772.75760067
  entropy T*S    EENTRO =        -0.00000000
  eigenvalues    EBANDS =      -617.46831886
  atomic energy  EATOM  =      1406.67326350
  Solvation  Ediel_sol  =         0.00000000
  ---------------------------------------------------
  free energy    TOTEN  =      -103.46154883 eV

  energy without entropy =     -103.46154883  energy(sigma->0) =     -103.46154883


--------------------------------------------------------------------------------------------------------




--------------------------------------- Iteration      1(   7)  ---------------------------------------


    POTLOK:  cpu time      2.3254: real time      2.3266
    SETDIJ:  cpu time      0.0312: real time      0.0312
    EDDIAG:  cpu time      0.6027: real time      0.6028
  RMM-DIIS:  cpu time      3.0913: real time      3.0948
    ORTHCH:  cpu time      0.0260: real time      0.0346
       DOS:  cpu time      0.0003: real time      0.0002
    CHARGE:  cpu time      0.3087: real time      0.3087
    MIXING:  cpu time      0.0895: real time      0.0895
    --------------------------------------------
      LOOP:  cpu time      6.4753: real time      6.4886

 eigenvalue-minimisations  :    60
 total energy-change (2. order) : 0.2067571E+01  (-0.1136454E+01)
 number of electron      41.9999999 magnetization 
 augmentation part        1.0379217 magnetization 

 Broyden mixing:
  rms(total) = 0.38772E+00    rms(broyden)= 0.38752E+00
  rms(prec ) = 0.42365E+00
  weight for this iteration     100.00

 eigenvalues of (default mixing * dielectric matrix)
  average eigenvalue GAMMA=   1.4354
  1.0097  1.8611

 Free energy of the ion-electron system (eV)
  ---------------------------------------------------
  alpha Z        PSCENC =         2.15216506
  Ewald energy   TEWEN  =      2396.72110587
  -Hartree energ DENC   =     -3493.95999165
  -exchange      EXHF   =         0.00000000
  -V(xc)+E(xc)   XCENC  =       138.24274090
  PAW double counting   =      2834.73392098    -2841.32544850
  entropy T*S    EENTRO =        -0.00000000
  eigenvalues    EBANDS =      -544.63173378
  atomic energy  EATOM  =      1406.67326350
  Solvation  Ediel_sol  =         0.00000000
  ---------------------------------------------------
  free energy    TOTEN  =      -101.39397761 eV

  energy without entropy =     -101.39397761  energy(sigma->0) =     -101.39397761


--------------------------------------------------------------------------------------------------------




--------------------------------------- Iteration      1(   8)  ---------------------------------------


    POTLOK:  cpu time      2.1942: real time      2.1946
    SETDIJ:  cpu time      0.0220: real time      0.0220
    EDDIAG:  cpu time      0.6177: real time      0.6179
  RMM-DIIS:  cpu time      2.9951: real time      2.9955
    ORTHCH:  cpu time      0.0228: real time      0.0229
       DOS:  cpu time      0.0002: real time      0.0002
    CHARGE:  cpu time      0.3532: real time      0.3533
    MIXING:  cpu time      0.1100: real time      0.1100
    --------------------------------------------
      LOOP:  cpu time      6.3153: real time      6.3164

 eigenvalue-minimisations  :    60
 total energy-change (2. order) : 0.1631578E+00  (-0.7070942E-01)
 number of electron      41.9999998 magnetization 
 augmentation part        1.0260123 magnetization 

 Broyden mixing:
  rms(total) = 0.23475E+00    rms(broyden)= 0.23471E+00
  rms(prec ) = 0.25847E+00
  weight for this iteration     100.00

 eigenvalues of (default mixing * dielectric matrix)
  average eigenvalue GAMMA=   1.7730
  2.6780  1.8427  0.7984

 Free energy of the ion-electron system (eV)
  ---------------------------------------------------
  alpha Z        PSCENC =         2.15216506
  Ewald energy   TEWEN  =      2396.72110587
  -Hartree energ DENC   =     -3502.40453714
  -exchange      EXHF   =         0.00000000
  -V(xc)+E(xc)   XCENC  =       138.82601899
  PAW double counting   =      3134.87110998    -3141.38871446
  entropy T*S    EENTRO =        -0.00000000
  eigenvalues    EBANDS =      -536.68123166
  atomic energy  EATOM  =      1406.67326350
  Solvation  Ediel_sol  =         0.00000000
  ---------------------------------------------------
  free energy    TOTEN  =      -101.23081985 eV

  energy without entropy =     -101.23081985  energy(sigma->0) =     -101.23081985


--------------------------------------------------------------------------------------------------------




--------------------------------------- Iteration      1(   9)  ---------------------------------------


    POTLOK:  cpu time      2.2822: real time      2.2827
    SETDIJ:  cpu time      0.0349: real time      0.0349
    EDDIAG:  cpu time      0.6532: real time      0.6533
  RMM-DIIS:  cpu time      3.1661: real time      3.1664
    ORTHCH:  cpu time      0.0279: real time      0.0280
       DOS:  cpu time      0.0003: real time      0.0003
    CHARGE:  cpu time      0.3866: real time      0.3866
    MIXING:  cpu time      0.1079: real time      0.1079
    --------------------------------------------
      LOOP:  cpu time      6.6590: real time      6.6601

 eigenvalue-minimisations  :    60
 total energy-change (2. order) : 0.9906804E-01  (-0.4376729E-01)
 number of electron      41.9999998 magnetization 
 augmentation part        1.0249601 magnetization 

 Broyden mixing:
  rms(total) = 0.64100E-01    rms(broyden)= 0.64087E-01
  rms(prec ) = 0.86515E-01
  weight for this iteration     100.00

 eigenvalues of (default mixing * dielectric matrix)
  average eigenvalue GAMMA=   1.4725
  2.3132  1.7008  0.8681  1.0080

 Free energy of the ion-electron system (eV)
  ---------------------------------------------------
  alpha Z        PSCENC =         2.15216506
  Ewald energy   TEWEN  =      2396.72110587
  -Hartree energ DENC   =     -3511.41092057
  -exchange      EXHF   =         0.00000000
  -V(xc)+E(xc)   XCENC  =       139.39753163
  PAW double counting   =      3548.03371802    -3554.35805080
  entropy T*S    EENTRO =        -0.00000000
  eigenvalues    EBANDS =      -528.34056453
  atomic energy  EATOM  =      1406.67326350
  Solvation  Ediel_sol  =         0.00000000
  ---------------------------------------------------
  free energy    TOTEN  =      -101.13175181 eV

  energy without entropy =     -101.13175181  energy(sigma->0) =     -101.13175181


--------------------------------------------------------------------------------------------------------




--------------------------------------- Iteration      1(  10)  ---------------------------------------


    POTLOK:  cpu time      2.3031: real time      2.3034
    SETDIJ:  cpu time      0.0080: real time      0.0080
    EDDIAG:  cpu time      0.6197: real time      0.6197
  RMM-DIIS:  cpu time      3.2098: real time      3.2102
    ORTHCH:  cpu time      0.0265: real time      0.0351
       DOS:  cpu time      0.0003: real time      0.0003
    CHARGE:  cpu time      0.3465: real time      0.3471
    MIXING:  cpu time      0.0766: real time      0.0766
    --------------------------------------------
      LOOP:  cpu time      6.5905: real time      6.6003

 eigenvalue-minimisations  :    63
 total energy-change (2. order) : 0.3926295E-02  (-0.7124802E-02)
 number of electron      41.9999999 magnetization 
 augmentation part        1.0229563 magnetization 

 Broyden mixing:
  rms(total) = 0.30043E-01    rms(broyden)= 0.30034E-01
  rms(prec ) = 0.54645E-01
  weight for this iteration     100.00

 eigenvalues of (default mixing * dielectric matrix)
  average eigenvalue GAMMA=   1.4692
  1.9631  1.9631  1.5563  0.8253  1.0384

 Free energy of the ion-electron system (eV)
  ---------------------------------------------------
  alpha Z        PSCENC =         2.15216506
  Ewald energy   TEWEN  =      2396.72110587
  -Hartree energ DENC   =     -3514.18072297
  -exchange      EXHF   =         0.00000000
  -V(xc)+E(xc)   XCENC  =       139.41949126
  PAW double counting   =      3499.14788442    -3505.51169425
  entropy T*S    EENTRO =        -0.00000000
  eigenvalues    EBANDS =      -525.54931841
  atomic energy  EATOM  =      1406.67326350
  Solvation  Ediel_sol  =         0.00000000
  ---------------------------------------------------
  free energy    TOTEN  =      -101.12782552 eV

  energy without entropy =     -101.12782552  energy(sigma->0) =     -101.12782552


--------------------------------------------------------------------------------------------------------




--------------------------------------- Iteration      1(  11)  ---------------------------------------


    POTLOK:  cpu time      2.2155: real time      2.2157
    SETDIJ:  cpu time      0.0059: real time      0.0059
    EDDIAG:  cpu time      0.6023: real time      0.6025
  RMM-DIIS:  cpu time      3.2539: real time      3.2548
    ORTHCH:  cpu time      0.0206: real time      0.0207
       DOS:  cpu time      0.0003: real time      0.0003
    CHARGE:  cpu time      0.3812: real time      0.3813
    MIXING:  cpu time      0.0997: real time      0.0997
    --------------------------------------------
      LOOP:  cpu time      6.5796: real time      6.5808

 eigenvalue-minimisations  :    60
 total energy-change (2. order) :-0.7285794E-02  (-0.9173954E-02)
 number of electron      41.9999999 magnetization 
 augmentation part        1.0211719 magnetization 

 Broyden mixing:
  rms(total) = 0.33618E-01    rms(broyden)= 0.33608E-01
  rms(prec ) = 0.46082E-01
  weight for this iteration     100.00

 eigenvalues of (default mixing * dielectric matrix)
  average eigenvalue GAMMA=   1.5062
  2.3890  2.3890  1.2925  1.2925  0.8768  0.7977

 Free energy of the ion-electron system (eV)
  ---------------------------------------------------
  alpha Z        PSCENC =         2.15216506
  Ewald energy   TEWEN  =      2396.72110587
  -Hartree energ DENC   =     -3521.70046822
  -exchange      EXHF   =         0.00000000
  -V(xc)+E(xc)   XCENC  =       139.50311604
  PAW double counting   =      3463.08773450    -3469.45926726
  entropy T*S    EENTRO =        -0.00000000
  eigenvalues    EBANDS =      -518.11276080
  atomic energy  EATOM  =      1406.67326350
  Solvation  Ediel_sol  =         0.00000000
  ---------------------------------------------------
  free energy    TOTEN  =      -101.13511131 eV

  energy without entropy =     -101.13511131  energy(sigma->0) =     -101.13511131


--------------------------------------------------------------------------------------------------------




--------------------------------------- Iteration      1(  12)  ---------------------------------------


    POTLOK:  cpu time      2.1999: real time      2.2003
    SETDIJ:  cpu time      0.0276: real time      0.0276
    EDDIAG:  cpu time      0.5751: real time      0.5751
  RMM-DIIS:  cpu time      3.3229: real time      3.3233
    ORTHCH:  cpu time      0.0313: real time      0.0398
       DOS:  cpu time      0.0002: real time      0.0002
    CHARGE:  cpu time      0.4276: real time      0.4280
    MIXING:  cpu time      0.0859: real time      0.0859
    --------------------------------------------
      LOOP:  cpu time      6.6707: real time      6.6803

 eigenvalue-minimisations  :    61
 total energy-change (2. order) : 0.2557255E-02  (-0.8674816E-03)
 number of electron      41.9999999 magnetization 
 augmentation part        1.0203392 magnetization 

 Broyden mixing:
  rms(total) = 0.20725E-01    rms(broyden)= 0.20724E-01
  rms(prec ) = 0.30988E-01
  weight for this iteration     100.00

 eigenvalues of (default mixing * dielectric matrix)
  average eigenvalue GAMMA=   1.6211
  2.7110  2.7110  1.3644  1.3644  1.4352  0.8116  0.9500

 Free energy of the ion-electron system (eV)
  ---------------------------------------------------
  alpha Z        PSCENC =         2.15216506
  Ewald energy   TEWEN  =      2396.72110587
  -Hartree energ DENC   =     -3523.17779237
  -exchange      EXHF   =         0.00000000
  -V(xc)+E(xc)   XCENC  =       139.53370933
  PAW double counting   =      3478.34475007    -3484.69818456
  entropy T*S    EENTRO =        -0.00000000
  eigenvalues    EBANDS =      -516.68157096
  atomic energy  EATOM  =      1406.67326350
  Solvation  Ediel_sol  =         0.00000000
  ---------------------------------------------------
  free energy    TOTEN  =      -101.13255406 eV

  energy without entropy =     -101.13255406  energy(sigma->0) =     -101.13255406


--------------------------------------------------------------------------------------------------------




--------------------------------------- Iteration      1(  13)  ---------------------------------------


    POTLOK:  cpu time      2.0731: real time      2.0735
    SETDIJ:  cpu time      0.0061: real time      0.0061
    EDDIAG:  cpu time      0.6586: real time      0.6586
  RMM-DIIS:  cpu time      3.3143: real time      3.3146
    ORTHCH:  cpu time      0.0271: real time      0.0272
       DOS:  cpu time      0.0002: real time      0.0002
    CHARGE:  cpu time      0.3382: real time      0.3383
    MIXING:  cpu time      0.1356: real time      0.1356
    --------------------------------------------
      LOOP:  cpu time      6.5533: real time      6.5541

 eigenvalue-minimisations  :    60
 total energy-change (2. order) :-0.7325321E-02  (-0.1168564E-02)
 number of electron      41.9999999 magnetization 
 augmentation part        1.0197984 magnetization 

 Broyden mixing:
  rms(total) = 0.71999E-02    rms(broyden)= 0.71924E-02
  rms(prec ) = 0.12481E-01
  weight for this iteration     100.00

 eigenvalues of (default mixing * dielectric matrix)
  average eigenvalue GAMMA=   1.7160
  4.0413  2.5007  1.8165  1.3422  1.3422  0.8097  0.9375  0.9375

 Free energy of the ion-electron system (eV)
  ---------------------------------------------------
  alpha Z        PSCENC =         2.15216506
  Ewald energy   TEWEN  =      2396.72110587
  -Hartree energ DENC   =     -3526.28607529
  -exchange      EXHF   =         0.00000000
  -V(xc)+E(xc)   XCENC  =       139.56004637
  PAW double counting   =      3464.56932251    -3470.91398030
  entropy T*S    EENTRO =        -0.00000000
  eigenvalues    EBANDS =      -513.61572709
  atomic energy  EATOM  =      1406.67326350
  Solvation  Ediel_sol  =         0.00000000
  ---------------------------------------------------
  free energy    TOTEN  =      -101.13987938 eV

  energy without entropy =     -101.13987938  energy(sigma->0) =     -101.13987938


--------------------------------------------------------------------------------------------------------




--------------------------------------- Iteration      1(  14)  ---------------------------------------


    POTLOK:  cpu time      2.1736: real time      2.1739
    SETDIJ:  cpu time      0.0142: real time      0.0142
    EDDIAG:  cpu time      0.6085: real time      0.6086
  RMM-DIIS:  cpu time      3.2532: real time      3.2536
    ORTHCH:  cpu time      0.0266: real time      0.0284
       DOS:  cpu time      0.0003: real time      0.0003
    CHARGE:  cpu time      0.3795: real time      0.3885
    MIXING:  cpu time      0.1176: real time      0.1176
    --------------------------------------------
      LOOP:  cpu time      6.5736: real time      6.5850

 eigenvalue-minimisations  :    63
 total energy-change (2. order) :-0.4669434E-02  (-0.3876373E-03)
 number of electron      41.9999999 magnetization 
 augmentation part        1.0192099 magnetization 

 Broyden mixing:
  rms(total) = 0.61231E-02    rms(broyden)= 0.61207E-02
  rms(prec ) = 0.99162E-02
  weight for this iteration     100.00

 eigenvalues of (default mixing * dielectric matrix)
  average eigenvalue GAMMA=   1.7628
  4.2360  2.6208  1.8458  1.8458  1.3258  1.3258  0.9325  0.9325  0.8000

 Free energy of the ion-electron system (eV)
  ---------------------------------------------------
  alpha Z        PSCENC =         2.15216506
  Ewald energy   TEWEN  =      2396.72110587
  -Hartree energ DENC   =     -3527.59664204
  -exchange      EXHF   =         0.00000000
  -V(xc)+E(xc)   XCENC  =       139.58783039
  PAW double counting   =      3470.18342065    -3476.52961365
  entropy T*S    EENTRO =        -0.00000000
  eigenvalues    EBANDS =      -512.33607860
  atomic energy  EATOM  =      1406.67326350
  Solvation  Ediel_sol  =         0.00000000
  ---------------------------------------------------
  free energy    TOTEN  =      -101.14454881 eV

  energy without entropy =     -101.14454881  energy(sigma->0) =     -101.14454881


--------------------------------------------------------------------------------------------------------




--------------------------------------- Iteration      1(  15)  ---------------------------------------


    POTLOK:  cpu time      2.1765: real time      2.1766
    SETDIJ:  cpu time      0.0344: real time      0.0344
    EDDIAG:  cpu time      0.5989: real time      0.5990
  RMM-DIIS:  cpu time      3.0221: real time      3.0224
    ORTHCH:  cpu time      0.0244: real time      0.0374
       DOS:  cpu time      0.0002: real time      0.0002
    CHARGE:  cpu time      0.4053: real time      0.4054
    MIXING:  cpu time      0.1178: real time      0.1178
    --------------------------------------------
      LOOP:  cpu time      6.3796: real time      6.3931

 eigenvalue-minimisations  :    60
 total energy-change (2. order) :-0.1160434E-01  (-0.2232203E-03)
 number of electron      41.9999999 magnetization 
 augmentation part        1.0192282 magnetization 

 Broyden mixing:
  rms(total) = 0.30064E-02    rms(broyden)= 0.30055E-02
  rms(prec ) = 0.47625E-02
  weight for this iteration     100.00

 eigenvalues of (default mixing * dielectric matrix)
  average eigenvalue GAMMA=   1.9386
  6.1779  2.8097  2.2794  1.7739  1.3491  1.3491  1.0763  0.8843  0.8843  0.8022

 Free energy of the ion-electron system (eV)
  ---------------------------------------------------
  alpha Z        PSCENC =         2.15216506
  Ewald energy   TEWEN  =      2396.72110587
  -Hartree energ DENC   =     -3528.03536137
  -exchange      EXHF   =         0.00000000
  -V(xc)+E(xc)   XCENC  =       139.56386416
  PAW double counting   =      3466.29800410    -3472.64487123
  entropy T*S    EENTRO =        -0.00000000
  eigenvalues    EBANDS =      -511.88432325
  atomic energy  EATOM  =      1406.67326350
  Solvation  Ediel_sol  =         0.00000000
  ---------------------------------------------------
  free energy    TOTEN  =      -101.15615315 eV

  energy without entropy =     -101.15615315  energy(sigma->0) =     -101.15615315


--------------------------------------------------------------------------------------------------------




--------------------------------------- Iteration      1(  16)  ---------------------------------------


    POTLOK:  cpu time      2.1204: real time      2.1212
    SETDIJ:  cpu time      0.0057: real time      0.0057
    EDDIAG:  cpu time      0.5841: real time      0.6008
  RMM-DIIS:  cpu time      3.2955: real time      3.3350
    ORTHCH:  cpu time      0.0230: real time      0.0340
       DOS:  cpu time      0.0003: real time      0.0003
    CHARGE:  cpu time      0.3521: real time      0.3578
    MIXING:  cpu time      0.1264: real time      0.2364
    --------------------------------------------
      LOOP:  cpu time      6.5076: real time      6.6912

 eigenvalue-minimisations  :    63
 total energy-change (2. order) :-0.2397661E-02  (-0.1027644E-03)
 number of electron      41.9999999 magnetization 
 augmentation part        1.0190690 magnetization 

 Broyden mixing:
  rms(total) = 0.25856E-02    rms(broyden)= 0.25851E-02
  rms(prec ) = 0.37213E-02
  weight for this iteration     100.00

 eigenvalues of (default mixing * dielectric matrix)
  average eigenvalue GAMMA=   1.9742
  6.6396  2.9030  2.3493  1.4205  1.4205  1.4937  1.4937  1.3400  0.8011  0.9276
  0.9276

 Free energy of the ion-electron system (eV)
  ---------------------------------------------------
  alpha Z        PSCENC =         2.15216506
  Ewald energy   TEWEN  =      2396.72110587
  -Hartree energ DENC   =     -3528.40118496
  -exchange      EXHF   =         0.00000000
  -V(xc)+E(xc)   XCENC  =       139.56644219
  PAW double counting   =      3465.86776690    -3472.21644059
  entropy T*S    EENTRO =        -0.00000000
  eigenvalues    EBANDS =      -511.52166879
  atomic energy  EATOM  =      1406.67326350
  Solvation  Ediel_sol  =         0.00000000
  ---------------------------------------------------
  free energy    TOTEN  =      -101.15855081 eV

  energy without entropy =     -101.15855081  energy(sigma->0) =     -101.15855081


--------------------------------------------------------------------------------------------------------




--------------------------------------- Iteration      1(  17)  ---------------------------------------


    POTLOK:  cpu time      1.7472: real time      1.7694
    SETDIJ:  cpu time      0.0058: real time      0.0058
    EDDIAG:  cpu time      0.4938: real time      0.4944
  RMM-DIIS:  cpu time      2.1490: real time      2.1512
    ORTHCH:  cpu time      0.0157: real time      0.0157
       DOS:  cpu time      0.0002: real time      0.0002
    CHARGE:  cpu time      0.2123: real time      0.2123
    MIXING:  cpu time      0.0830: real time      0.0830
    --------------------------------------------
      LOOP:  cpu time      4.7070: real time      4.7320

 eigenvalue-minimisations  :    60
 total energy-change (2. order) :-0.3309304E-02  (-0.5671452E-04)
 number of electron      41.9999999 magnetization 
 augmentation part        1.0189739 magnetization 

 Broyden mixing:
  rms(total) = 0.17887E-02    rms(broyden)= 0.17883E-02
  rms(prec ) = 0.23780E-02
  weight for this iteration     100.00

 eigenvalues of (default mixing * dielectric matrix)
  average eigenvalue GAMMA=   2.1175
  7.6692  4.0475  2.4687  2.0966  1.3457  1.3457  1.4580  1.4580  0.8050  0.8974
  0.8974  0.9212

 Free energy of the ion-electron system (eV)
  ---------------------------------------------------
  alpha Z        PSCENC =         2.15216506
  Ewald energy   TEWEN  =      2396.72110587
  -Hartree energ DENC   =     -3528.27203664
  -exchange      EXHF   =         0.00000000
  -V(xc)+E(xc)   XCENC  =       139.55618856
  PAW double counting   =      3467.62893303    -3473.97705573
  entropy T*S    EENTRO =        -0.00000000
  eigenvalues    EBANDS =      -511.64442376
  atomic energy  EATOM  =      1406.67326350
  Solvation  Ediel_sol  =         0.00000000
  ---------------------------------------------------
  free energy    TOTEN  =      -101.16186011 eV

  energy without entropy =     -101.16186011  energy(sigma->0) =     -101.16186011


--------------------------------------------------------------------------------------------------------




--------------------------------------- Iteration      1(  18)  ---------------------------------------


    POTLOK:  cpu time      1.4916: real time      1.4919
    SETDIJ:  cpu time      0.0169: real time      0.0169
    EDDIAG:  cpu time      0.3342: real time      0.3344
  RMM-DIIS:  cpu time      1.7929: real time      1.7931
    ORTHCH:  cpu time      0.0140: real time      0.0140
       DOS:  cpu time      0.0002: real time      0.0002
    CHARGE:  cpu time      0.1892: real time      0.1892
    MIXING:  cpu time      0.0770: real time      0.0770
    --------------------------------------------
      LOOP:  cpu time      3.9159: real time      3.9166

 eigenvalue-minimisations  :    55
 total energy-change (2. order) :-0.8302934E-03  (-0.2387545E-04)
 number of electron      41.9999999 magnetization 
 augmentation part        1.0189780 magnetization 

 Broyden mixing:
  rms(total) = 0.12374E-02    rms(broyden)= 0.12374E-02
  rms(prec ) = 0.16074E-02
  weight for this iteration     100.00

 eigenvalues of (default mixing * dielectric matrix)
  average eigenvalue GAMMA=   2.1791
  8.1657  4.6744  2.3634  2.3634  1.8116  1.3684  1.3684  1.2960  1.2960  0.8002
  0.9882  0.9163  0.9163

 Free energy of the ion-electron system (eV)
  ---------------------------------------------------
  alpha Z        PSCENC =         2.15216506
  Ewald energy   TEWEN  =      2396.72110587
  -Hartree energ DENC   =     -3528.28659424
  -exchange      EXHF   =         0.00000000
  -V(xc)+E(xc)   XCENC  =       139.55295976
  PAW double counting   =      3468.46269410    -3474.80995578
  entropy T*S    EENTRO =        -0.00000000
  eigenvalues    EBANDS =      -511.62832868
  atomic energy  EATOM  =      1406.67326350
  Solvation  Ediel_sol  =         0.00000000
  ---------------------------------------------------
  free energy    TOTEN  =      -101.16269041 eV

  energy without entropy =     -101.16269041  energy(sigma->0) =     -101.16269041


--------------------------------------------------------------------------------------------------------




--------------------------------------- Iteration      1(  19)  ---------------------------------------


    POTLOK:  cpu time      1.4648: real time      1.4652
    SETDIJ:  cpu time      0.0221: real time      0.0221
    EDDIAG:  cpu time      0.3648: real time      0.3686
  RMM-DIIS:  cpu time      1.5040: real time      1.5050
    ORTHCH:  cpu time      0.0141: real time      0.0141
       DOS:  cpu time      0.0001: real time      0.0001
    CHARGE:  cpu time      0.1580: real time      0.1581
    MIXING:  cpu time      0.0731: real time      0.0731
    --------------------------------------------
      LOOP:  cpu time      3.6010: real time      3.6063

 eigenvalue-minimisations  :    58
 total energy-change (2. order) :-0.4977446E-03  (-0.1446880E-04)
 number of electron      41.9999999 magnetization 
 augmentation part        1.0189274 magnetization 

 Broyden mixing:
  rms(total) = 0.67213E-03    rms(broyden)= 0.67173E-03
  rms(prec ) = 0.90213E-03
  weight for this iteration     100.00

 eigenvalues of (default mixing * dielectric matrix)
  average eigenvalue GAMMA=   2.1718
  8.5633  4.7856  2.5136  2.5136  1.9681  1.3490  1.3490  1.3973  1.3973  0.8012
  0.9895  0.9895  0.8938  0.8938

 Free energy of the ion-electron system (eV)
  ---------------------------------------------------
  alpha Z        PSCENC =         2.15216506
  Ewald energy   TEWEN  =      2396.72110587
  -Hartree energ DENC   =     -3528.33702646
  -exchange      EXHF   =         0.00000000
  -V(xc)+E(xc)   XCENC  =       139.55305623
  PAW double counting   =      3467.80106754    -3474.14918860
  entropy T*S    EENTRO =        -0.00000000
  eigenvalues    EBANDS =      -511.57763130
  atomic energy  EATOM  =      1406.67326350
  Solvation  Ediel_sol  =         0.00000000
  ---------------------------------------------------
  free energy    TOTEN  =      -101.16318815 eV

  energy without entropy =     -101.16318815  energy(sigma->0) =     -101.16318815


--------------------------------------------------------------------------------------------------------




--------------------------------------- Iteration      1(  20)  ---------------------------------------


    POTLOK:  cpu time      1.3721: real time      1.3809
    SETDIJ:  cpu time      0.0065: real time      0.0065
    EDDIAG:  cpu time      0.2665: real time      0.2665
  RMM-DIIS:  cpu time      1.0067: real time      1.0067
    ORTHCH:  cpu time      0.0119: real time      0.0119
       DOS:  cpu time      0.0001: real time      0.0001
    CHARGE:  cpu time      0.1526: real time      0.1526
    MIXING:  cpu time      0.0560: real time      0.0560
    --------------------------------------------
      LOOP:  cpu time      2.8723: real time      2.8812

 eigenvalue-minimisations  :    42
 total energy-change (2. order) :-0.1631728E-03  (-0.1938004E-05)
 number of electron      41.9999999 magnetization 
 augmentation part        1.0189175 magnetization 

 Broyden mixing:
  rms(total) = 0.37624E-03    rms(broyden)= 0.37620E-03
  rms(prec ) = 0.52959E-03
  weight for this iteration     100.00

 eigenvalues of (default mixing * dielectric matrix)
  average eigenvalue GAMMA=   2.2113
  8.7298  5.3431  3.0282  2.5148  2.1116  1.3191  1.3191  1.5602  1.2345  1.2345
  1.2146  0.8004  0.9126  0.9126  0.9346

 Free energy of the ion-electron system (eV)
  ---------------------------------------------------
  alpha Z        PSCENC =         2.15216506
  Ewald energy   TEWEN  =      2396.72110587
  -Hartree energ DENC   =     -3528.33047233
  -exchange      EXHF   =         0.00000000
  -V(xc)+E(xc)   XCENC  =       139.55281576
  PAW double counting   =      3467.59863612    -3473.94644858
  entropy T*S    EENTRO =        -0.00000000
  eigenvalues    EBANDS =      -511.58441672
  atomic energy  EATOM  =      1406.67326350
  Solvation  Ediel_sol  =         0.00000000
  ---------------------------------------------------
  free energy    TOTEN  =      -101.16335132 eV

  energy without entropy =     -101.16335132  energy(sigma->0) =     -101.16335132


--------------------------------------------------------------------------------------------------------




--------------------------------------- Iteration      1(  21)  ---------------------------------------


    POTLOK:  cpu time      1.1037: real time      1.1037
    SETDIJ:  cpu time      0.0075: real time      0.0075
    EDDIAG:  cpu time      0.2274: real time      0.2274
  RMM-DIIS:  cpu time      0.9130: real time      0.9131
    ORTHCH:  cpu time      0.0096: real time      0.0096
       DOS:  cpu time      0.0001: real time      0.0001
    CHARGE:  cpu time      0.1248: real time      0.1248
    MIXING:  cpu time      0.0651: real time      0.0651
    --------------------------------------------
      LOOP:  cpu time      2.4512: real time      2.4513

 eigenvalue-minimisations  :    39
 total energy-change (2. order) :-0.1075255E-03  (-0.1113251E-05)
 number of electron      41.9999999 magnetization 
 augmentation part        1.0189217 magnetization 

 Broyden mixing:
  rms(total) = 0.17721E-03    rms(broyden)= 0.17714E-03
  rms(prec ) = 0.25726E-03
  weight for this iteration     100.00

 eigenvalues of (default mixing * dielectric matrix)
  average eigenvalue GAMMA=   2.2782
  8.9520  5.7236  3.7941  2.5200  2.2421  1.9066  1.3502  1.3502  1.4316  1.4316
  1.1668  0.8006  0.9754  0.9754  0.9154  0.9154

 Free energy of the ion-electron system (eV)
  ---------------------------------------------------
  alpha Z        PSCENC =         2.15216506
  Ewald energy   TEWEN  =      2396.72110587
  -Hartree energ DENC   =     -3528.29940730
  -exchange      EXHF   =         0.00000000
  -V(xc)+E(xc)   XCENC  =       139.55204608
  PAW double counting   =      3467.59865407    -3473.94617272
  entropy T*S    EENTRO =        -0.00000000
  eigenvalues    EBANDS =      -511.61511342
  atomic energy  EATOM  =      1406.67326350
  Solvation  Ediel_sol  =         0.00000000
  ---------------------------------------------------
  free energy    TOTEN  =      -101.16345885 eV

  energy without entropy =     -101.16345885  energy(sigma->0) =     -101.16345885


--------------------------------------------------------------------------------------------------------




--------------------------------------- Iteration      1(  22)  ---------------------------------------


    POTLOK:  cpu time      1.1138: real time      1.1139
    SETDIJ:  cpu time      0.0083: real time      0.0083
    EDDIAG:  cpu time      0.2329: real time      0.2329
  RMM-DIIS:  cpu time      0.7854: real time      0.7855
    ORTHCH:  cpu time      0.0104: real time      0.0104
       DOS:  cpu time      0.0001: real time      0.0001
    CHARGE:  cpu time      0.1342: real time      0.1342
    MIXING:  cpu time      0.0634: real time      0.0634
    --------------------------------------------
      LOOP:  cpu time      2.3485: real time      2.3487

 eigenvalue-minimisations  :    35
 total energy-change (2. order) :-0.4595895E-04  (-0.3361441E-06)
 number of electron      41.9999999 magnetization 
 augmentation part        1.0189267 magnetization 

 Broyden mixing:
  rms(total) = 0.10583E-03    rms(broyden)= 0.10577E-03
  rms(prec ) = 0.14601E-03
  weight for this iteration     100.00

 eigenvalues of (default mixing * dielectric matrix)
  average eigenvalue GAMMA=   2.2733
  8.9452  6.2311  4.0387  2.5481  2.5481  1.9787  1.3399  1.3399  1.4768  1.4768
  1.1279  1.1279  0.8003  0.9626  0.8997  0.8997  0.9046

 Free energy of the ion-electron system (eV)
  ---------------------------------------------------
  alpha Z        PSCENC =         2.15216506
  Ewald energy   TEWEN  =      2396.72110587
  -Hartree energ DENC   =     -3528.29742022
  -exchange      EXHF   =         0.00000000
  -V(xc)+E(xc)   XCENC  =       139.55193060
  PAW double counting   =      3467.53908605    -3473.88661401
  entropy T*S    EENTRO =        -0.00000000
  eigenvalues    EBANDS =      -511.61702166
  atomic energy  EATOM  =      1406.67326350
  Solvation  Ediel_sol  =         0.00000000
  ---------------------------------------------------
  free energy    TOTEN  =      -101.16350481 eV

  energy without entropy =     -101.16350481  energy(sigma->0) =     -101.16350481


--------------------------------------------------------------------------------------------------------




--------------------------------------- Iteration      1(  23)  ---------------------------------------


    POTLOK:  cpu time      1.0242: real time      1.0242
    SETDIJ:  cpu time      0.0081: real time      0.0081
    EDDIAG:  cpu time      0.1521: real time      0.1522
  RMM-DIIS:  cpu time      0.5570: real time      0.5570
    ORTHCH:  cpu time      0.0086: real time      0.0086
       DOS:  cpu time      0.0001: real time      0.0001
    CHARGE:  cpu time      0.1031: real time      0.1031
    MIXING:  cpu time      0.0549: real time      0.0549
    --------------------------------------------
      LOOP:  cpu time      1.9081: real time      1.9082

 eigenvalue-minimisations  :    30
 total energy-change (2. order) :-0.1340632E-04  (-0.1055687E-06)
 number of electron      41.9999999 magnetization 
 augmentation part        1.0189247 magnetization 

 Broyden mixing:
  rms(total) = 0.11503E-03    rms(broyden)= 0.11501E-03
  rms(prec ) = 0.14416E-03
  weight for this iteration     100.00

 eigenvalues of (default mixing * dielectric matrix)
  average eigenvalue GAMMA=   2.3013
  9.0921  6.5455  4.4166  2.9011  2.4616  1.8377  1.7404  1.7404  1.3493  1.3493
  1.2661  1.2661  0.8005  0.9166  0.9156  0.9156  0.9546  0.9546

 Free energy of the ion-electron system (eV)
  ---------------------------------------------------
  alpha Z        PSCENC =         2.15216506
  Ewald energy   TEWEN  =      2396.72110587
  -Hartree energ DENC   =     -3528.29539969
  -exchange      EXHF   =         0.00000000
  -V(xc)+E(xc)   XCENC  =       139.55189146
  PAW double counting   =      3467.59449070    -3473.94205895
  entropy T*S    EENTRO =        -0.00000000
  eigenvalues    EBANDS =      -511.61897617
  atomic energy  EATOM  =      1406.67326350
  Solvation  Ediel_sol  =         0.00000000
  ---------------------------------------------------
  free energy    TOTEN  =      -101.16351822 eV

  energy without entropy =     -101.16351822  energy(sigma->0) =     -101.16351822


--------------------------------------------------------------------------------------------------------




--------------------------------------- Iteration      1(  24)  ---------------------------------------


    POTLOK:  cpu time      0.8538: real time      0.8538
    SETDIJ:  cpu time      0.0098: real time      0.0098
    EDDIAG:  cpu time      0.1525: real time      0.1525
  RMM-DIIS:  cpu time      0.5050: real time      0.5050
    ORTHCH:  cpu time      0.0090: real time      0.0090
       DOS:  cpu time      0.0001: real time      0.0001
    CHARGE:  cpu time      0.1095: real time      0.1095
    MIXING:  cpu time      0.0558: real time      0.0558
    --------------------------------------------
      LOOP:  cpu time      1.6954: real time      1.6955

 eigenvalue-minimisations  :    23
 total energy-change (2. order) :-0.1003336E-04  (-0.3347668E-07)
 number of electron      41.9999999 magnetization 
 augmentation part        1.0189245 magnetization 

 Broyden mixing:
  rms(total) = 0.31099E-04    rms(broyden)= 0.31080E-04
  rms(prec ) = 0.46763E-04
  weight for this iteration     100.00

 eigenvalues of (default mixing * dielectric matrix)
  average eigenvalue GAMMA=   2.3145
  9.1736  6.8494  4.7079  3.0825  2.6271  2.1928  1.9805  1.3500  1.3500  1.4577
  1.4577  1.1078  1.1078  1.0875  0.8006  0.9665  0.8981  0.8981  0.8800

 Free energy of the ion-electron system (eV)
  ---------------------------------------------------
  alpha Z        PSCENC =         2.15216506
  Ewald energy   TEWEN  =      2396.72110587
  -Hartree energ DENC   =     -3528.29976612
  -exchange      EXHF   =         0.00000000
[...]


--------------------------------------------------------------------------------------------------------


    POTLOK:  cpu time      0.8512: real time      1.5104


--------------------------------------------------------------------------------------------------------


 NEB: the previous image is higher in energy: F
 NEB: the next image is higher in energy    : F
 NEB: image is at an extrema
 NEB: diff energy (min, max):     0.392809    2.087874

 NEB: Tangent
 ----------------------------------------------
      0.05600      0.01326     -0.08191
      0.02235     -0.03529     -0.07201
      0.06159     -0.04764     -0.18852
      0.13188      0.09978     -0.26430
     -0.13791     -0.01805      0.43825
     -0.09099      0.04229      0.36249
     -0.03761     -0.04410      0.24510
      0.10103     -0.04566     -0.05932
      0.06557      0.05381      0.03827
      0.16560      0.10002     -0.29235
      0.03800     -0.02166     -0.05791
      0.02024      0.00441      0.05920
      0.05682     -0.05176     -0.26288
     -0.05532      0.04989      0.12463
     -0.12427      0.01069      0.34054
     -0.00298      0.02224      0.07395
      0.01639     -0.12834      0.14503

 NEB: forces: par spring, perp REAL, dneb     0.657048    0.061539    0.000000
 NEB: distance to prev, next image, angle between     1.187792    1.319202  114.575738
 NEB: projections on to tangent (spring, REAL)     0.657048   -0.012796

 stress matrix after NEB project (eV)
     -1.81984     -0.02797     -0.02077
     -0.02797     -1.84564      0.08942
     -0.02077      0.08942     -2.01880
  FORCES: max atom, RMS     0.028265    0.015245
  FORCE total and by dimension    0.062855    0.020006
  Stress total and by dimension    3.288183    2.018797
 Quasi-Newton relaxation of ions (Broydens 2nd method)
  g(Force)  = 0.418E-03   g(Stress)= 0.000E+00

 retain information from N=  1 steps
 eigenvalues of (default step * inverse Hessian matrix)
  average eigenvalue of G=   1.6672
 eigenvalue spectrum of G is  1.6672


--------------------------------------------------------------------------------------------------------


    WAVPRE:  cpu time      0.8970: real time      1.6157
    FEWALD:  cpu time      0.0004: real time      0.0004
    ORTHCH:  cpu time      0.1252: real time      0.2292
     LOOP+:  cpu time     15.3514: real time     22.0201


--------------------------------------- Iteration    108(   1)  ---------------------------------------


    POTLOK:  cpu time      1.2508: real time      1.8106
    SETDIJ:  cpu time      0.0038: real time      0.0156
     EDDAV:  cpu time      1.6523: real time      2.9134
       DOS:  cpu time      0.0005: real time      0.0037
    CHARGE:  cpu time      0.1788: real time      0.2210
    MIXING:  cpu time      0.0848: real time      0.1423
    --------------------------------------------
      LOOP:  cpu time      3.1710: real time      5.1066

 eigenvalue-minimisations  :    72
 total energy-change (2. order) :-0.8050708E-04  (-0.3337945E-03)
 number of electron      41.9999981 magnetization 
 augmentation part        1.0107075 magnetization 

 Broyden mixing:
  rms(total) = 0.11115E-02    rms(broyden)= 0.11049E-02
  rms(prec ) = 0.11913E-02
  weight for this iteration     100.00

 Free energy of the ion-electron system (eV)
  ---------------------------------------------------
  alpha Z        PSCENC =         2.15216506
  Ewald energy   TEWEN  =      2369.42697400
  -Hartree energ DENC   =     -3502.89943901
  -exchange      EXHF   =         0.00000000
  -V(xc)+E(xc)   XCENC  =       139.21219949
  PAW double counting   =      3406.80052360    -3413.11758944
  entropy T*S    EENTRO =        -0.00000000
  eigenvalues    EBANDS =      -509.49663719
  atomic energy  EATOM  =      1406.67326350
  Solvation  Ediel_sol  =         0.00000000
  ---------------------------------------------------
  free energy    TOTEN  =      -101.24853998 eV

  energy without entropy =     -101.24853998  energy(sigma->0) =     -101.24853998


--------------------------------------------------------------------------------------------------------




--------------------------------------- Iteration    108(   2)  ---------------------------------------


    POTLOK:  cpu time      1.1928: real time      1.7873
    SETDIJ:  cpu time      0.0041: real time      0.0042
    EDDIAG:  cpu time      0.2546: real time      0.2640
  RMM-DIIS:  cpu time      1.0907: real time      1.1263
    ORTHCH:  cpu time      0.0068: real time      0.0069
       DOS:  cpu time      0.0001: real time      0.0001
    --------------------------------------------
      LOOP:  cpu time      2.5490: real time      3.1886

 eigenvalue-minimisations  :    43
 total energy-change (2. order) :-0.2603143E-05  (-0.4116609E-05)
 number of electron      41.9999981 magnetization 
 augmentation part        1.0107075 magnetization 

 Free energy of the ion-electron system (eV)
  ---------------------------------------------------
  alpha Z        PSCENC =         2.15216506
  Ewald energy   TEWEN  =      2369.42697400
  -Hartree energ DENC   =     -3502.90374524
  -exchange      EXHF   =         0.00000000
  -V(xc)+E(xc)   XCENC  =       139.21243886
  PAW double counting   =      3406.84255598    -3413.15968771
  entropy T*S    EENTRO =        -0.00000000
  eigenvalues    EBANDS =      -509.49250703
  atomic energy  EATOM  =      1406.67326350
  Solvation  Ediel_sol  =         0.00000000
  ---------------------------------------------------
  free energy    TOTEN  =      -101.24854258 eV

  energy without entropy =     -101.24854258  energy(sigma->0) =     -101.24854258


--------------------------------------------------------------------------------------------------------




 average (electrostatic) potential at core
  the test charge radii are     0.6991  0.5201  0.7089
  (the norm of the test charge is              1.0000)
       1 -59.0571       2 -58.9784       3 -59.0197       4 -59.1670       5 -59.3159
       6 -59.5565       7 -59.5459       8 -42.2467       9 -42.3761      10 -42.3404
      11 -42.1847      12 -42.2397      13 -42.2304      14 -42.3839      15 -42.4470
      16 -42.5272      17 -72.7278
 
 
 
 E-fermi :  -5.3878     XC(G=0):  -0.6290     alpha+bet : -0.2838

 Fermi energy:        -5.3878146889

 k-point     1 :       0.0000    0.0000    0.0000
  band No.  band energies     occupation 
      1     -22.0240      2.00000
      2     -20.4965      2.00000
      3     -19.4870      2.00000
      4     -18.1498      2.00000
      5     -15.9333      2.00000
      6     -15.5869      2.00000
      7     -13.1595      2.00000
      8     -12.6103      2.00000
      9     -12.4160      2.00000
     10     -11.1015      2.00000
     11     -10.9594      2.00000
     12     -10.1240      2.00000
     13      -9.6928      2.00000
     14      -9.3285      2.00000
     15      -8.8801      2.00000
     16      -8.7695      2.00000
     17      -8.0732      2.00000
     18      -8.0186      2.00000
     19      -7.6887      2.00000
     20      -6.5937      2.00000
     21      -5.6532      2.00000
     22      -2.6006      0.00000
     23      -1.3933      0.00000
     24      -0.6505      0.00000
     25      -0.1613      0.00000
     26      -0.0664      0.00000
     27       0.0728      0.00000
     28       0.3205      0.00000
     29       0.4134      0.00000
     30       0.4941      0.00000


--------------------------------------------------------------------------------------------------------


 soft charge-density along one line, spin component           1
         0         1         2         3         4         5         6         7         8         9
 total charge-density along one line
 
 pseudopotential strength for first ion, spin component:           1
 10.270  13.658   0.000  -0.001   0.000  -0.001   0.004  -0.002
 13.658  18.164   0.000  -0.001   0.000  -0.002   0.005  -0.002
  0.000   0.000  -4.395  -0.001   0.001   8.597   0.001  -0.002
 -0.001  -0.001  -0.001  -4.390   0.002   0.001   8.591  -0.003
  0.000   0.000   0.001   0.002  -4.395  -0.002  -0.003   8.597
 -0.001  -0.002   8.597   0.001  -0.002 -18.956  -0.002   0.002
  0.004   0.005   0.001   8.591  -0.003  -0.002 -18.955   0.005
 -0.002  -0.002  -0.002  -0.003   8.597   0.002   0.005 -18.956
 total augmentation occupancy for first ion, spin component:           1
  7.882  -3.427   0.101  -0.159   0.219   0.020  -0.025   0.039
 -3.427   1.534  -0.069   0.108  -0.140  -0.013   0.014  -0.024
  0.101  -0.069   1.808   0.059  -0.059   0.167   0.010  -0.011
 -0.159   0.108   0.059   1.168  -0.050   0.010   0.073  -0.010
  0.219  -0.140  -0.059  -0.050   1.791  -0.011  -0.010   0.162
  0.020  -0.013   0.167   0.010  -0.011   0.016   0.001  -0.002
 -0.025   0.014   0.010   0.073  -0.010   0.001   0.005  -0.001
  0.039  -0.024  -0.011  -0.010   0.162  -0.002  -0.001   0.015


------------------------ aborting loop because EDIFF is reached ----------------------------------------


    CHARGE:  cpu time      0.3366: real time      0.3387
    FORLOC:  cpu time      0.1493: real time      0.2814
    FORNL :  cpu time      0.2353: real time      0.4634
    STRESS:  cpu time      1.0020: real time      1.6849
    FORCOR:  cpu time      1.3413: real time      1.4829
    FORHAR:  cpu time      0.4902: real time      0.7743
    MIXING:  cpu time      0.0348: real time      0.0509
    OFIELD:  cpu time      0.0001: real time      0.0001

 ---------------------------------------------------------------------------------------------

         DFTD3 V3.0 Rev 1        
 Edisp (eV)   -0.22984

 E6    (eV) :    -0.0938
 E8    (eV) :    -0.1360
 % E8        : 59.18
    FORVDW:  cpu time      0.0080: real time      0.0200

  FORCE on cell =-STRESS in cart. coord.  units (eV):
  Direction    XX          YY          ZZ          XY          YZ          ZX
  --------------------------------------------------------------------------------------
  Alpha Z     2.15217     2.15217     2.15217
  Ewald    1046.52508  1091.76554   231.13514   381.77504   -55.99735  -444.02790
  Hartree  1248.80498  1321.43565   932.66928   255.29930   -56.06745  -401.10146
  E(xc)    -151.10957  -151.55563  -154.19836     0.62273     0.02642    -0.00091
  Local   -2669.80932 -2805.37591 -1616.29102  -623.22152   112.32800   851.14999
  n-local   -62.47638   -59.45824   -55.23303    -1.55694    -0.37643    -0.64430
  augment    -0.65950    -0.63392    -0.37852     0.00490     0.02205    -0.04172
  Kinetic   584.76237   599.82851   658.08407   -12.94125     0.15557    -5.38199
  Fock        0.00000     0.00000     0.00000     0.00000     0.00000     0.00000
  vdW        -0.00339     0.00072     0.05078    -0.00836    -0.00768     0.02285
  -------------------------------------------------------------------------------------
  Total      -1.81356    -1.84112    -2.00951    -0.02610     0.08312    -0.02544
  in kB      -0.79523    -0.80731    -0.88115    -0.01145     0.03645    -0.01115
  external pressure =       -0.83 kB  Pullay stress =        0.00 kB


 VOLUME and BASIS-vectors are now :
 -----------------------------------------------------------------------------
  energy-cutoff  :      400.00
  volume of cell :     3653.87
      direct lattice vectors                 reciprocal lattice vectors
    15.402250290  0.000000000  0.000000000     0.064925578  0.000000000  0.000000000
     0.000000000 15.402250290  0.000000000     0.000000000  0.064925578  0.000000000
     0.000000000  0.000000000 15.402250290     0.000000000  0.000000000  0.064925578

  length of vectors
    15.402250290 15.402250290 15.402250290     0.064925578  0.064925578  0.064925578


 FORCES acting on ions
    electron-ion (+dipol)            ewald-force                    non-local-force                 convergence-correction
 -----------------------------------------------------------------------------------------------
   0.136E+03 0.977E+02 -.841E+02   -.136E+03 -.982E+02 0.854E+02   0.575E+00 0.433E+00 -.127E+01   -.229E-02 0.184E-02 -.520E-03
   0.152E+03 -.641E+02 -.842E+02   -.153E+03 0.644E+02 0.849E+02   0.752E+00 -.322E+00 -.731E+00   -.470E-03 -.313E-02 -.398E-02
   -.300E+02 -.151E+03 -.706E+02   0.308E+02 0.152E+03 0.707E+02   -.801E+00 -.494E+00 -.102E+00   0.345E-02 -.212E-02 -.468E-02
   -.650E+02 0.152E+03 -.539E+02   0.656E+02 -.152E+03 0.541E+02   -.508E+00 0.384E+00 -.198E+00   0.815E-03 -.195E-02 0.437E-04
   -.123E+02 0.139E+03 0.939E+02   0.122E+02 -.140E+03 -.945E+02   0.380E-01 0.164E+01 0.610E+00   0.291E-04 -.230E-02 0.290E-02
   0.419E+02 -.541E+02 0.107E+03   -.462E+02 0.526E+02 -.108E+03   0.423E+01 0.150E+01 0.889E+00   -.136E-02 0.402E-02 0.467E-02
   -.113E+02 -.190E+02 0.614E+02   0.959E+01 0.177E+02 -.616E+02   0.175E+01 0.128E+01 0.238E+00   -.333E-02 0.639E-02 -.236E-02
   0.692E+02 0.453E+02 -.770E+01   -.740E+02 -.484E+02 0.751E+01   0.480E+01 0.308E+01 0.188E+00   -.392E-03 0.201E-03 0.562E-04
   -.638E+02 0.596E+01 -.400E+02   0.688E+02 -.367E+01 0.418E+02   -.496E+01 -.228E+01 -.178E+01   0.102E-03 -.219E-03 0.169E-03
   -.558E+01 0.811E+02 -.537E+01   0.570E+01 -.868E+02 0.487E+01   -.121E+00 0.571E+01 0.493E+00   -.228E-03 -.333E-03 0.351E-03
   0.758E+02 -.319E+02 -.985E+01   -.810E+02 0.342E+02 0.986E+01   0.524E+01 -.223E+01 0.880E-02   -.180E-03 -.282E-03 -.846E-03
   -.588E+02 -.874E+01 -.388E+02   0.643E+02 0.709E+01 0.397E+02   -.548E+01 0.166E+01 -.101E+01   0.124E-03 -.397E-03 -.389E-03
   0.102E+02 -.786E+02 -.714E+01   -.109E+02 0.843E+02 0.656E+01   0.678E+00 -.571E+01 0.595E+00   0.845E-03 -.721E-04 -.959E-03
   0.466E+02 0.465E+02 0.484E+02   -.511E+02 -.493E+02 -.508E+02   0.454E+01 0.280E+01 0.234E+01   0.743E-05 -.316E-03 0.343E-03
   -.592E+02 0.524E+02 0.183E+02   0.641E+02 -.553E+02 -.183E+02   -.496E+01 0.294E+01 0.386E-01   0.205E-03 -.554E-04 0.227E-04
   0.552E+02 -.404E+02 0.465E+02   -.597E+02 0.434E+02 -.485E+02   0.460E+01 -.297E+01 0.193E+01   -.250E-03 0.559E-03 0.831E-03
   -.257E+03 -.158E+03 0.260E+02   0.291E+03 0.179E+03 -.242E+02   -.342E+02 -.206E+02 -.180E+01   -.606E-02 0.113E-01 -.742E-02
 -----------------------------------------------------------------------------------------------
   0.239E+02 0.132E+02 -.440E+00   -.114E-12 -.114E-12 0.213E-13   -.239E+02 -.132E+02 0.449E+00   -.898E-02 0.131E-01 -.118E-01
 
 
 POSITION                                       TOTAL-FORCE (eV/Angst)
 -----------------------------------------------------------------------------------
      5.27478      6.76449      8.83858         0.003412     -0.002059      0.003144
      5.15324      8.17255      8.89572        -0.000263      0.002549      0.008507
      6.22462      9.01571      8.74615        -0.009770      0.008705      0.013000
      6.47985      6.13260      8.56566         0.000481      0.000599      0.010465
      6.93078      6.75949      6.57582         0.001009      0.001648     -0.019086
      6.98014      8.14981      6.46975         0.005484     -0.005805     -0.018969
      8.19971      8.86771      6.53657         0.003642     -0.009065     -0.000386
      4.35359      6.17615      8.79623         0.004734     -0.002123     -0.003907
      7.41996      6.57472      8.89952         0.004036      0.008966     -0.010123
      6.50022      5.04504      8.46818         0.007838      0.003232     -0.010297
      4.14480      8.59638      8.89064        -0.003936     -0.003541      0.014249
      7.24640      8.68951      8.93489        -0.004317      0.012632     -0.008989
      6.08854     10.09223      8.63583        -0.015774      0.008629      0.013033
      6.08022      6.24086      6.13727        -0.006389     -0.002283     -0.001936
      7.87114      6.20580      6.57471        -0.005268     -0.009460      0.008295
      6.11985      8.70796      6.10106         0.004841     -0.000144     -0.008118
      9.20501      9.47054      6.59313         0.010242     -0.012480      0.011120
 -----------------------------------------------------------------------------------
    total drift:                               -0.000229      0.000267     -0.002699


--------------------------------------------------------------------------------------------------------



  FREE ENERGIE OF THE ION-ELECTRON SYSTEM (eV)
  ---------------------------------------------------
  free  energy   TOTEN  =      -101.47837959 eV

  energy  without entropy=     -101.47837959  energy(sigma->0) =     -101.47837959
 
 d Force = 0.8925915E-04[ 0.854E-04, 0.931E-04]  d Energy = 0.9079790E-04-0.154E-05
 d Force = 0.4113568E-01[ 0.412E-01, 0.411E-01]  d Ewald  = 0.4113568E-01 0.142E-08


--------------------------------------------------------------------------------------------------------


    POTLOK:  cpu time      0.9734: real time      1.5812


--------------------------------------------------------------------------------------------------------


 NEB: the previous image is higher in energy: F
 NEB: the next image is higher in energy    : F
 NEB: image is at an extrema
 NEB: diff energy (min, max):     0.392964    2.087843

 NEB: Tangent
 ----------------------------------------------
      0.05590      0.01331     -0.08195
      0.02228     -0.03518     -0.07193
      0.06149     -0.04758     -0.18868
      0.13170      0.09984     -0.26449
     -0.13779     -0.01813      0.43808
     -0.09097      0.04212      0.36253
     -0.03764     -0.04413      0.24502
      0.10093     -0.04560     -0.05922
      0.06544      0.05401      0.03760
      0.16552      0.10012     -0.29297
      0.03796     -0.02154     -0.05744
      0.02017      0.00433      0.05849
      0.05681     -0.05169     -0.26310
     -0.05528      0.04967      0.12518
     -0.12413      0.01057      0.34027
     -0.00306      0.02202      0.07476
      0.01633     -0.12824      0.14476

 NEB: forces: par spring, perp REAL, dneb     0.654408    0.057088    0.000000
 NEB: distance to prev, next image, angle between     1.188091    1.318973  114.578557
 NEB: projections on to tangent (spring, REAL)     0.654408   -0.017180

 stress matrix after NEB project (eV)
     -1.81356     -0.02610     -0.02544
     -0.02610     -1.84112      0.08312
     -0.02544      0.08312     -2.00951
  FORCES: max atom, RMS     0.025708    0.014459
  FORCE total and by dimension    0.059617    0.020363
  Stress total and by dimension    3.276176    2.009508
 Quasi-Newton relaxation of ions (Broydens 2nd method)
  g(Force)  = 0.386E-03   g(Stress)= 0.000E+00

 retain information from N=  2 steps
 eigenvalues of (default step * inverse Hessian matrix)
  average eigenvalue of G=   4.3533
 eigenvalue spectrum of G is  4.3533  4.3533


--------------------------------------------------------------------------------------------------------


  
 reached required accuracy - stopping structural energy minimisation
     LOOP+:  cpu time     12.9717: real time     18.4052
    4ORBIT:  cpu time      0.0000: real time      0.0000

 total amount of memory used by VASP MPI-rank0   277942. kBytes
=======================================================================

   base      :      30000. kBytes
   nonl-proj :      15437. kBytes
   fftplans  :      71598. kBytes
   grid      :     152883. kBytes
   one-center:         26. kBytes
   wavefun   :       7998. kBytes
 
  
  
 General timing and accounting informations for this job:
 ========================================================
  
                  Total CPU time used (sec):     2255.306
                            User time (sec):     2059.509
                          System time (sec):      195.797
                         Elapsed time (sec):     3151.789
  
                   Maximum memory used (kb):     1153320.
                   Average memory used (kb):          N/A
  
                          Minor page faults:     15071824
                          Major page faults:          248
                 Voluntary context switches:         1581
