<?xml version="1.0" encoding="ISO-8859-1"?>
<modeling>
 <generator>
  <i name="program" type="string">vasp </i>
  <i name="version" type="string">6.3.2  </i>
  <i name="subversion" type="string">27Jun22 (build Oct 05 2023 17:59:42) gamma-only                       parallel </i>
  <i name="platform" type="string">LinuxIFC </i>
  <i name="date" type="string">2024 04 05 </i>
  <i name="time" type="string">18:28:44 </i>
 </generator>
 <incar>
  <i type="string" name="PREC">NORMAL</i>
  <i type="string" name="ALGO">Fast</i>
  <i type="int" name="ISPIN">     1</i>
  <i type="int" name="IBRION">     1</i>
  <i name="EDIFF">      0.00001000</i>
  <i name="EDIFFG">     -0.05000000</i>
  <i type="int" name="NSW">  5000</i>
  <i name="ENCUT">    400.00000000</i>
  <i name="POTIM">      0.10000000</i>
  <i type="int" name="ISMEAR">     0</i>
  <i name="SIGMA">      0.05000000</i>
  <i type="logical" name="LWAVE"> F  </i>
  <i type="logical" name="LCHARG"> F  </i>
  <i type="string" name="GGA">PE</i>
  <i type="int" name="IVDW">    11</i>
  <i name="SPRING">     -5.00000000</i>
 </incar>
 <primitive_cell>
  <structure name="primitive_cell" >
   <crystal>
    <varray name="basis" >
     <v>      15.40225029       0.00000000       0.00000000 </v>
     <v>       0.00000000      15.40225029       0.00000000 </v>
     <v>       0.00000000       0.00000000      15.40225029 </v>
    </varray>
    <i name="volume">   3653.86527022 </i>
    <varray name="rec_basis" >
     <v>       0.06492558       0.00000000       0.00000000 </v>
     <v>       0.00000000       0.06492558       0.00000000 </v>
     <v>       0.00000000       0.00000000       0.06492558 </v>
    </varray>
   </crystal>
   <varray name="positions" >
    <v>       0.34137391       0.43799587       0.57399929 </v>
    <v>       0.33545977       0.52960691       0.57401354 </v>
    <v>       0.40599016       0.58265623       0.56456774 </v>
    <v>       0.41852488       0.39555203       0.56047272 </v>
    <v>       0.45166803       0.44142250       0.42633534 </v>
    <v>       0.45271576       0.53094724       0.42316482 </v>
    <v>       0.53161274       0.57801587       0.42380247 </v>
    <v>       0.28072093       0.40168040       0.57182057 </v>
    <v>       0.47938110       0.42711991       0.57600266 </v>
    <v>       0.42138000       0.32585419       0.55014047 </v>
    <v>       0.27128396       0.55861283       0.56978382 </v>
    <v>       0.47153317       0.56018734       0.57742879 </v>
    <v>       0.39869552       0.65245406       0.55698208 </v>
    <v>       0.39428734       0.40573150       0.40725391 </v>
    <v>       0.51315510       0.40705836       0.42521466 </v>
    <v>       0.39455890       0.56647060       0.40596603 </v>
    <v>       0.59687677       0.61698027       0.42546372 </v>
   </varray>
  </structure>
  <varray name="primitive_index" >
   <v type="int" >        1 </v>
   <v type="int" >        2 </v>
   <v type="int" >        3 </v>
   <v type="int" >        4 </v>
   <v type="int" >        5 </v>
   <v type="int" >        6 </v>
   <v type="int" >        7 </v>
   <v type="int" >        8 </v>
   <v type="int" >        9 </v>
   <v type="int" >       10 </v>
   <v type="int" >       11 </v>
   <v type="int" >       12 </v>
   <v type="int" >       13 </v>
   <v type="int" >       14 </v>
   <v type="int" >       15 </v>
   <v type="int" >       16 </v>
   <v type="int" >       17 </v>
  </varray>
 </primitive_cell>
 <kpoints>
  <generation param="Monkhorst-Pack">
   <v type="int" name="divisions">       1        1        1 </v>
   <v name="usershift">      0.00000000       0.00000000       0.00000000 </v>
   <v name="genvec1">      1.00000000       0.00000000       0.00000000 </v>
   <v name="genvec2">      0.00000000       1.00000000       0.00000000 </v>
   <v name="genvec3">      0.00000000       0.00000000       1.00000000 </v>
   <v name="shift">      0.00000000       0.00000000       0.00000000 </v>
  </generation>
  <varray name="kpointlist" >
   <v>       0.00000000       0.00000000       0.00000000 </v>
  </varray>
  <varray name="weights" >
   <v>       1.00000000 </v>
  </varray>
 </kpoints>
 <parameters>
  <separator name="general" >
   <i type="string" name="SYSTEM">unknown system</i>
   <i type="logical" name="LCOMPAT"> F  </i>
  </separator>
  <separator name="electronic" >
   <i type="string" name="PREC">normal</i>
   <i name="ENMAX">    400.00000000</i>
   <i name="ENAUG">    644.87300000</i>
   <i name="EDIFF">      0.00001000</i>
   <i type="int" name="IALGO">    68</i>
   <i type="int" name="IWAVPR">    11</i>
   <i type="int" name="NBANDS">    30</i>
   <i type="int" name="NBANDSLOW">    -1</i>
   <i type="int" name="NBANDSHIGH">    -1</i>
   <i name="NELECT">     42.00000000</i>
   <i type="int" name="TURBO">     0</i>
   <i type="int" name="IRESTART">     0</i>
   <i type="int" name="NREBOOT">     0</i>
   <i type="int" name="NMIN">     0</i>
   <i name="EREF">      0.00000000</i>
   <separator name="electronic smearing" >
    <i type="int" name="ISMEAR">     0</i>
    <i name="SIGMA">      0.05000000</i>
    <i name="KSPACING">      0.50000000</i>
    <i type="logical" name="KGAMMA"> T  </i>
    <i type="logical" name="KBLOWUP"> T  </i>
   </separator>
   <separator name="electronic projectors" >
    <i type="logical" name="LREAL"> F  </i>
    <v name="ROPT">      0.00000000      0.00000000      0.00000000</v>
    <i type="int" name="LMAXPAW">  -100</i>
    <i type="int" name="LMAXMIX">     2</i>
    <i type="logical" name="NLSPLINE"> F  </i>
   </separator>
   <separator name="electronic startup" >
    <i type="int" name="ISTART">     0</i>
    <i type="int" name="ICHARG">     2</i>
    <i type="int" name="INIWAV">     1</i>
   </separator>
   <separator name="electronic spin" >
    <i type="int" name="ISPIN">     1</i>
    <i type="logical" name="LNONCOLLINEAR"> F  </i>
    <v name="MAGMOM">      1.00000000      1.00000000      1.00000000      1.00000000      1.00000000      1.00000000      1.00000000      1.00000000      1.00000000      1.00000000      1.00000000      1.00000000      1.00000000      1.00000000      1.00000000      1.00000000      1.00000000</v>
    <i name="NUPDOWN">     -1.00000000</i>
    <i type="logical" name="LSORBIT"> F  </i>
    <v name="SAXIS">      0.00000000      0.00000000      1.00000000</v>
    <i type="logical" name="LSPIRAL"> F  </i>
    <v name="QSPIRAL">      0.00000000      0.00000000      0.00000000</v>
    <i type="logical" name="LZEROZ"> F  </i>
   </separator>
   <separator name="electronic exchange-correlation" >
    <i type="logical" name="LASPH"> F  </i>
    <i type="logical" name="LMETAGGA"> F  </i>
   </separator>
   <separator name="electronic convergence" >
    <i type="int" name="NELM">    60</i>
    <i type="int" name="NELMDL">    -5</i>
    <i type="int" name="NELMIN">     2</i>
    <i name="ENINI">    400.00000000</i>
    <separator name="electronic convergence detail" >
     <i type="logical" name="LDIAG"> T  </i>
     <i type="logical" name="LSUBROT"> F  </i>
     <i name="WEIMIN">      0.00100000</i>
     <i name="EBREAK">      0.00000008</i>
     <i name="DEPER">      0.30000000</i>
     <i type="int" name="NRMM">     4</i>
     <i name="TIME">      0.40000000</i>
    </separator>
   </separator>
   <separator name="electronic mixer" >
    <i name="AMIX">      0.40000000</i>
    <i name="BMIX">      1.00000000</i>
    <i name="AMIN">      0.10000000</i>
    <i name="AMIX_MAG">      1.60000000</i>
    <i name="BMIX_MAG">      1.00000000</i>
    <separator name="electronic mixer details" >
     <i type="int" name="IMIX">     4</i>
     <i type="logical" name="MIXFIRST"> F  </i>
     <i type="int" name="MAXMIX">   -45</i>
     <i name="WC">    100.00000000</i>
     <i type="int" name="INIMIX">     1</i>
     <i type="int" name="MIXPRE">     1</i>
     <i type="int" name="MREMOVE">     5</i>
    </separator>
   </separator>
   <separator name="electronic dipolcorrection" >
    <i type="logical" name="LDIPOL"> F  </i>
    <i type="logical" name="LMONO"> F  </i>
    <i type="int" name="IDIPOL">     0</i>
    <i name="EPSILON">      1.00000000</i>
    <v name="DIPOL">   -100.00000000   -100.00000000   -100.00000000</v>
    <i name="EFIELD">      0.00000000</i>
   </separator>
  </separator>
  <separator name="grids" >
   <i type="int" name="NGX">    80</i>
   <i type="int" name="NGY">    80</i>
   <i type="int" name="NGZ">    80</i>
   <i type="int" name="NGXF">   160</i>
   <i type="int" name="NGYF">   160</i>
   <i type="int" name="NGZF">   160</i>
   <i type="logical" name="ADDGRID"> F  </i>
  </separator>
  <separator name="ionic" >
   <i type="int" name="NSW">  5000</i>
   <i type="int" name="IBRION">     1</i>
   <i type="int" name="MDALGO">     0</i>
   <i type="int" name="ISIF">     2</i>
   <i name="PSTRESS">      0.00000000</i>
   <i name="EDIFFG">     -0.05000000</i>
   <i type="int" name="NFREE">     0</i>
   <i name="POTIM">      0.10000000</i>
   <i name="SMASS">     -3.00000000</i>
   <i name="SCALEE">      1.00000000</i>
  </separator>
  <separator name="ionic md" >
   <i name="TEBEG">      0.00010000</i>
   <i name="TEEND">      0.00010000</i>
   <i type="int" name="NBLOCK">     1</i>
   <i type="int" name="KBLOCK">  5000</i>
   <i type="int" name="NPACO">   256</i>
   <i name="APACO">     10.00000000</i>
  </separator>
  <separator name="symmetry" >
   <i type="int" name="ISYM">     2</i>
   <i name="SYMPREC">      0.00001000</i>
  </separator>
  <separator name="dos" >
   <i type="int" name="LORBIT">     0</i>
   <v name="RWIGS">     -1.00000000     -1.00000000     -1.00000000</v>
   <i type="int" name="NEDOS">   301</i>
   <i name="EMIN">     10.00000000</i>
   <i name="EMAX">    -10.00000000</i>
   <i name="EFERMI">      0.00000000</i>
  </separator>
  <separator name="writing" >
   <i type="int" name="NWRITE">     2</i>
   <i type="logical" name="LWAVE"> F  </i>
   <i type="logical" name="LDOWNSAMPLE"> F  </i>
   <i type="logical" name="LCHARG"> F  </i>
   <i type="logical" name="LPARD"> F  </i>
   <i type="logical" name="LVTOT"> F  </i>
   <i type="logical" name="LVHAR"> F  </i>
   <i type="logical" name="LELF"> F  </i>
   <i type="logical" name="LOPTICS"> F  </i>
   <v name="STM">      0.00000000      0.00000000      0.00000000      0.00000000      0.00000000      0.00000000      0.00000000</v>
  </separator>
  <separator name="performance" >
   <i type="int" name="NPAR">     2</i>
   <i type="int" name="NSIM">     4</i>
   <i type="int" name="NBLK">    -1</i>
   <i type="logical" name="LPLANE"> T  </i>
   <i type="logical" name="LSCALAPACK"> T  </i>
   <i type="logical" name="LSCAAWARE"> F  </i>
   <i type="logical" name="LSCALU"> F  </i>
   <i type="logical" name="LASYNC"> F  </i>
   <i type="logical" name="LORBITALREAL"> F  </i>
  </separator>
  <separator name="miscellaneous" >
   <i type="int" name="IDIOT">     3</i>
   <i type="int" name="PHON_NSTRUCT">    -1</i>
   <i type="logical" name="LMUSIC"> F  </i>
   <v name="POMASS">     12.01100000      1.00000000     14.00100000</v>
   <v name="DARWINR">      0.00000000      0.00000000      0.00000000</v>
   <v name="DARWINV">      1.00000000      1.00000000      1.00000000</v>
   <i type="logical" name="LCORR"> T  </i>
  </separator>
  <i type="logical" name="GGA_COMPAT"> T  </i>
  <i type="logical" name="LBERRY"> F  </i>
  <i type="int" name="ICORELEVEL">     0</i>
  <i type="logical" name="LDAU"> F  </i>
  <i type="int" name="I_CONSTRAINED_M">     0</i>
  <separator name="electronic exchange-correlation" >
   <i type="string" name="GGA">PE</i>
   <i type="int" name="VOSKOWN">     0</i>
   <i type="logical" name="LHFCALC"> F  </i>
   <i type="string" name="PRECFOCK"></i>
   <i type="logical" name="LSYMGRAD"> F  </i>
   <i type="logical" name="LHFONE"> F  </i>
   <i type="logical" name="LRHFCALC"> F  </i>
   <i type="logical" name="LTHOMAS"> F  </i>
   <i type="logical" name="LMODELHF"> F  </i>
   <i type="logical" name="LFOCKACE"> F  </i>
   <i name="ENCUT4O">     -1.00000000</i>
   <i type="int" name="EXXOEP">     0</i>
   <i type="int" name="FOURORBIT">     0</i>
   <i name="AEXX">      0.00000000</i>
   <i name="HFALPHA">      0.00000000</i>
   <i name="MCALPHA">      0.00000000</i>
   <i name="ALDAX">      1.00000000</i>
   <i name="AGGAX">      1.00000000</i>
   <i name="ALDAC">      1.00000000</i>
   <i name="AGGAC">      1.00000000</i>
   <i type="int" name="NKREDX">     1</i>
   <i type="int" name="NKREDY">     1</i>
   <i type="int" name="NKREDZ">     1</i>
   <i type="logical" name="SHIFTRED"> F  </i>
   <i type="logical" name="ODDONLY"> F  </i>
   <i type="logical" name="EVENONLY"> F  </i>
   <i type="int" name="LMAXFOCK">     0</i>
   <i type="int" name="NMAXFOCKAE">     0</i>
   <i type="logical" name="LFOCKAEDFT"> F  </i>
   <i name="HFSCREEN">      0.00000000</i>
   <i name="HFSCREENC">      0.00000000</i>
   <i type="int" name="NBANDSGWLOW">     0</i>
  </separator>
  <separator name="vdW DFT" >
   <i type="logical" name="LUSE_VDW"> F  </i>
   <i name="Zab_VDW">     -0.84910000</i>
   <i name="PARAM1">      0.12340000</i>
   <i name="PARAM2">      1.00000000</i>
   <i name="PARAM3">      0.00000000</i>
  </separator>
  <separator name="model GW" >
   <i type="int" name="MODEL_GW">     0</i>
   <i name="MODEL_EPS0">    128.95995071</i>
   <i name="MODEL_ALPHA">      1.00000000</i>
  </separator>
  <separator name="linear response parameters" >
   <i type="logical" name="LEPSILON"> F  </i>
   <i type="logical" name="LRPA"> F  </i>
   <i type="logical" name="LNABLA"> F  </i>
   <i type="logical" name="LVEL"> F  </i>
   <i name="CSHIFT">      0.10000000</i>
   <i name="OMEGAMAX">     -1.00000000</i>
   <i name="DEG_THRESHOLD">      0.00200000</i>
   <i name="RTIME">     -0.10000000</i>
   <i name="WPLASMAI">      0.00000000</i>
   <v name="DFIELD">      0.00000000      0.00000000      0.00000000</v>
   <v name="WPLASMA">      0.00000000      0.00000000      0.00000000      0.00000000      0.00000000      0.00000000      0.00000000      0.00000000      0.00000000</v>
  </separator>
  <separator name="orbital magnetization" >
   <i type="logical" name="NUCIND"> F  </i>
   <v name="MAGPOS">      0.00000000      0.00000000      0.00000000</v>
   <i type="logical" name="LNICSALL"> T  </i>
   <i type="logical" name="ORBITALMAG"> F  </i>
   <i type="logical" name="LMAGBLOCH"> F  </i>
   <i type="logical" name="LCHIMAG"> F  </i>
   <i type="logical" name="LGAUGE"> T  </i>
   <i type="int" name="MAGATOM">     0</i>
   <v name="MAGDIPOL">      0.00000000      0.00000000      0.00000000</v>
   <v name="AVECCONST">      0.00000000      0.00000000      0.00000000</v>
  </separator>
  <separator name="response functions" >
   <i type="logical" name="LFINITE_TEMPERATURE"> F  </i>
   <i type="logical" name="LADDER"> F  </i>
   <i type="logical" name="LRPAFORCE"> F  </i>
   <i type="logical" name="LFXC"> F  </i>
   <i type="logical" name="LHARTREE"> T  </i>
   <i type="int" name="IBSE">     0</i>
   <v type="int" name="KPOINT">    -1     0     0     0</v>
   <i type="logical" name="LTCTC"> F  </i>
   <i type="logical" name="LTCTE"> F  </i>
   <i type="logical" name="LTETE"> F  </i>
   <i type="logical" name="LTRIPLET"> F  </i>
   <i type="logical" name="LFXCEPS"> F  </i>
   <i type="logical" name="LFXHEG"> F  </i>
   <i type="int" name="NATURALO">     2</i>
   <i type="logical" name="LHOLEGF"> F  </i>
   <i type="logical" name="L2ORDER"> F  </i>
   <i type="logical" name="LDMP1"> F  </i>
   <i type="logical" name="LMP2LT"> F  </i>
   <i type="logical" name="LSMP2LT"> F  </i>
   <i type="logical" name="LGWLF"> F  </i>
   <i name="ENCUTGW">     -2.00000000</i>
   <i name="ENCUTGWSOFT">     -2.00000000</i>
   <i name="ENCUTLF">     -1.00000000</i>
   <i type="logical" name="LESF_SPLINES"> F  </i>
   <i type="int" name="LMAXMP2">    -1</i>
   <i name="SCISSOR">      0.00000000</i>
   <i type="int" name="NOMEGA">     0</i>
   <i type="int" name="NOMEGAR">     0</i>
   <i type="int" name="NBANDSGW">    -1</i>
   <i type="int" name="NBANDSO">    -1</i>
   <i type="int" name="NBANDSV">    -1</i>
   <i type="int" name="NELMGW">     1</i>
   <i type="int" name="NELMHF">     1</i>
   <i type="int" name="DIM">     3</i>
   <i type="int" name="IESPILON">     4</i>
   <i type="int" name="ANTIRES">     0</i>
   <i name="OMEGAMAX">    -30.00000000</i>
   <i name="OMEGAMIN">    -30.00000000</i>
   <i name="OMEGATL">   -200.00000000</i>
   <i type="int" name="OMEGAGRID">     0</i>
   <i name="CSHIFT">     -0.10000000</i>
   <i type="logical" name="LSELFENERGY"> F  </i>
   <i type="logical" name="LSPECTRAL"> F  </i>
   <i type="logical" name="LSPECTRALGW"> F  </i>
   <i type="logical" name="LSINGLES"> F  </i>
   <i type="logical" name="LFERMIGW"> F  </i>
   <i type="logical" name="ODDONLYGW"> F  </i>
   <i type="logical" name="EVENONLYGW"> F  </i>
   <i type="int" name="NKREDLFX">     1</i>
   <i type="int" name="NKREDLFY">     1</i>
   <i type="int" name="NKREDLFZ">     1</i>
   <i type="int" name="MAXMEM">  2800</i>
   <i type="int" name="TELESCOPE">     0</i>
   <i type="int" name="NTAUPAR">    -1</i>
   <i type="int" name="NOMEGAPAR">    -1</i>
   <i name="DAMP_NEWTON">      0.80000001</i>
   <i name="LAMBDA">      1.00000000</i>
  </separator>
  <separator name="External order field" >
   <i name="OFIELD_KAPPA">      0.00000000</i>
   <v name="OFIELD_K">      0.00000000      0.00000000      0.00000000</v>
   <i name="OFIELD_Q6_NEAR">      0.00000000</i>
   <i name="OFIELD_Q6_FAR">      0.00000000</i>
   <i name="OFIELD_A">      0.00000000</i>
  </separator>
  <separator name="optional k-points parameters" >
   <i type="int" name="KPOINTS_OPT_MODE">     1</i>
   <i type="logical" name="LKPOINTS_OPT"> F  </i>
  </separator>
 </parameters>
 <atominfo>
  <atoms>      17 </atoms>
  <types>       3 </types>
  <array name="atoms" >
   <dimension dim="1">ion</dimension>
   <field type="string">element</field>
   <field type="int">atomtype</field>
   <set>
    <rc><c>C </c><c>   1</c></rc>
    <rc><c>C </c><c>   1</c></rc>
    <rc><c>C </c><c>   1</c></rc>
    <rc><c>C </c><c>   1</c></rc>
    <rc><c>C </c><c>   1</c></rc>
    <rc><c>C </c><c>   1</c></rc>
    <rc><c>C </c><c>   1</c></rc>
    <rc><c>H </c><c>   2</c></rc>
    <rc><c>H </c><c>   2</c></rc>
    <rc><c>H </c><c>   2</c></rc>
    <rc><c>H </c><c>   2</c></rc>
    <rc><c>H </c><c>   2</c></rc>
    <rc><c>H </c><c>   2</c></rc>
    <rc><c>H </c><c>   2</c></rc>
    <rc><c>H </c><c>   2</c></rc>
    <rc><c>H </c><c>   2</c></rc>
    <rc><c>N </c><c>   3</c></rc>
   </set>
  </array>
  <array name="atomtypes" >
   <dimension dim="1">type</dimension>
   <field type="int">atomspertype</field>
   <field type="string">element</field>
   <field>mass</field>
   <field>valence</field>
   <field type="string">pseudopotential</field>
   <set>
    <rc><c>   7</c><c>C </c><c>     12.01100000</c><c>      4.00000000</c><c>  PAW_PBE C 08Apr2002                   </c></rc>
    <rc><c>   9</c><c>H </c><c>      1.00000000</c><c>      1.00000000</c><c>  PAW_PBE H 15Jun2001                   </c></rc>
    <rc><c>   1</c><c>N </c><c>     14.00100000</c><c>      5.00000000</c><c>  PAW_PBE N 08Apr2002                   </c></rc>
   </set>
  </array>
 </atominfo>
 <structure name="initialpos" >
  <crystal>
   <varray name="basis" >
    <v>      15.40225029       0.00000000       0.00000000 </v>
    <v>       0.00000000      15.40225029       0.00000000 </v>
    <v>       0.00000000       0.00000000      15.40225029 </v>
   </varray>
   <i name="volume">   3653.86527022 </i>
   <varray name="rec_basis" >
    <v>       0.06492558       0.00000000       0.00000000 </v>
    <v>       0.00000000       0.06492558       0.00000000 </v>
    <v>       0.00000000       0.00000000       0.06492558 </v>
   </varray>
  </crystal>
  <varray name="positions" >
   <v>       0.34137391       0.43799587       0.57399929 </v>
   <v>       0.33545977       0.52960691       0.57401354 </v>
   <v>       0.40599016       0.58265623       0.56456774 </v>
   <v>       0.41852488       0.39555203       0.56047272 </v>
   <v>       0.45166803       0.44142250       0.42633534 </v>
   <v>       0.45271576       0.53094724       0.42316482 </v>
   <v>       0.53161274       0.57801587       0.42380247 </v>
   <v>       0.28072093       0.40168040       0.57182057 </v>
   <v>       0.47938110       0.42711991       0.57600266 </v>
   <v>       0.42138000       0.32585419       0.55014047 </v>
   <v>       0.27128396       0.55861283       0.56978382 </v>
   <v>       0.47153317       0.56018734       0.57742879 </v>
   <v>       0.39869552       0.65245406       0.55698208 </v>
   <v>       0.39428734       0.40573150       0.40725391 </v>
   <v>       0.51315510       0.40705836       0.42521466 </v>
   <v>       0.39455890       0.56647060       0.40596603 </v>
   <v>       0.59687677       0.61698027       0.42546372 </v>
  </varray>
 </structure>
 <calculation>
  <scstep>
   <time name="dav">    3.69    3.69</time>
   <time name="total">    5.86    5.87</time>
   <energy>
    <i name="alphaZ">      2.15216506 </i>
    <i name="ewald">   2396.72110587 </i>
    <i name="hartreedc">  -3339.03732737 </i>
    <i name="XCdc">    130.13253643 </i>
    <i name="pawpsdc">    983.79330320 </i>
    <i name="pawaedc">   -989.05002801 </i>
    <i name="eentropy">     -0.00420217 </i>
    <i name="bandstr">   -260.55536129 </i>
    <i name="atom">   1406.67326350 </i>
    <i name="e_fr_energy">    330.82545522 </i>
    <i name="e_wo_entrp">    330.82965739 </i>
    <i name="e_0_energy">    330.82755630 </i>
   </energy>
  </scstep>
  <scstep>
   <time name="dav">    4.52    4.53</time>
   <time name="total">    4.53    4.53</time>
   <energy>
    <i name="e_fr_energy">     35.25441465 </i>
    <i name="e_wo_entrp">     35.25441465 </i>
    <i name="e_0_energy">     35.25441465 </i>
   </energy>
  </scstep>
  <scstep>
   <time name="dav">    3.59    3.59</time>
   <time name="total">    3.59    3.59</time>
   <energy>
    <i name="e_fr_energy">    -95.74706615 </i>
    <i name="e_wo_entrp">    -95.74706615 </i>
    <i name="e_0_energy">    -95.74706615 </i>
   </energy>
  </scstep>
  <scstep>
   <time name="dav">    3.61    3.61</time>
   <time name="total">    3.61    3.61</time>
   <energy>
    <i name="e_fr_energy">   -111.50095668 </i>
    <i name="e_wo_entrp">   -111.50095668 </i>
    <i name="e_0_energy">   -111.50095668 </i>
   </energy>
  </scstep>
  <scstep>
   <time name="dav">    4.23    4.24</time>
   <time name="total">    4.69    4.71</time>
   <energy>
    <i name="e_fr_energy">   -111.86353054 </i>
    <i name="e_wo_entrp">   -111.86353054 </i>
    <i name="e_0_energy">   -111.86353054 </i>
   </energy>
  </scstep>
  <scstep>
   <time name="diag">    0.62    0.62</time>
   <time name="diis">    2.89    2.89</time>
   <time name="orth">    0.03    0.03</time>
   <time name="total">    6.17    6.18</time>
   <energy>
    <i name="e_fr_energy">   -103.46154883 </i>
    <i name="e_wo_entrp">   -103.46154883 </i>
    <i name="e_0_energy">   -103.46154883 </i>
   </energy>
  </scstep>
  <scstep>
   <time name="diag">    0.60    0.60</time>
   <time name="diis">    3.09    3.09</time>
   <time name="orth">    0.03    0.03</time>
   <time name="total">    6.48    6.49</time>
   <energy>
    <i name="e_fr_energy">   -101.39397761 </i>
    <i name="e_wo_entrp">   -101.39397761 </i>
    <i name="e_0_energy">   -101.39397761 </i>
   </energy>
  </scstep>
  <scstep>
   <time name="diag">    0.62    0.62</time>
   <time name="diis">    3.00    3.00</time>
   <time name="orth">    0.02    0.02</time>
   <time name="total">    6.32    6.32</time>
   <energy>
    <i name="e_fr_energy">   -101.23081985 </i>
    <i name="e_wo_entrp">   -101.23081985 </i>
    <i name="e_0_energy">   -101.23081985 </i>
   </energy>
  </scstep>
  <scstep>
   <time name="diag">    0.65    0.65</time>
   <time name="diis">    3.17    3.17</time>
   <time name="orth">    0.03    0.03</time>
   <time name="total">    6.66    6.66</time>
   <energy>
    <i name="e_fr_energy">   -101.13175181 </i>
    <i name="e_wo_entrp">   -101.13175181 </i>
    <i name="e_0_energy">   -101.13175181 </i>
   </energy>
  </scstep>
  <scstep>
   <time name="diag">    0.62    0.62</time>
   <time name="diis">    3.21    3.21</time>
   <time name="orth">    0.03    0.04</time>
   <time name="total">    6.59    6.60</time>
   <energy>
    <i name="e_fr_energy">   -101.12782552 </i>
    <i name="e_wo_entrp">   -101.12782552 </i>
    <i name="e_0_energy">   -101.12782552 </i>
   </energy>
  </scstep>
  <scstep>
   <time name="diag">    0.60    0.60</time>
   <time name="diis">    3.25    3.25</time>
   <time name="orth">    0.02    0.02</time>
   <time name="total">    6.58    6.58</time>
   <energy>
    <i name="e_fr_energy">   -101.13511131 </i>
    <i name="e_wo_entrp">   -101.13511131 </i>
    <i name="e_0_energy">   -101.13511131 </i>
   </energy>
  </scstep>
  <scstep>
   <time name="diag">    0.58    0.58</time>
   <time name="diis">    3.32    3.32</time>
   <time name="orth">    0.03    0.04</time>
   <time name="total">    6.67    6.68</time>
   <energy>
    <i name="e_fr_energy">   -101.13255406 </i>
    <i name="e_wo_entrp">   -101.13255406 </i>
    <i name="e_0_energy">   -101.13255406 </i>
   </energy>
  </scstep>
  <scstep>
   <time name="diag">    0.66    0.66</time>
   <time name="diis">    3.31    3.31</time>
   <time name="orth">    0.03    0.03</time>
   <time name="total">    6.55    6.55</time>
   <energy>
    <i name="e_fr_energy">   -101.13987938 </i>
    <i name="e_wo_entrp">   -101.13987938 </i>
    <i name="e_0_energy">   -101.13987938 </i>
   </energy>
  </scstep>
  <scstep>
   <time name="diag">    0.61    0.61</time>
   <time name="diis">    3.25    3.25</time>
   <time name="orth">    0.03    0.03</time>
   <time name="total">    6.57    6.58</time>
   <energy>
    <i name="e_fr_energy">   -101.14454881 </i>
    <i name="e_wo_entrp">   -101.14454881 </i>
    <i name="e_0_energy">   -101.14454881 </i>
   </energy>
  </scstep>
  <scstep>
   <time name="diag">    0.60    0.60</time>
   <time name="diis">    3.02    3.02</time>
   <time name="orth">    0.02    0.04</time>
   <time name="total">    6.38    6.39</time>
   <energy>
    <i name="e_fr_energy">   -101.15615315 </i>
    <i name="e_wo_entrp">   -101.15615315 </i>
    <i name="e_0_energy">   -101.15615315 </i>
   </energy>
  </scstep>
  <scstep>
   <time name="diag">    0.58    0.60</time>
   <time name="diis">    3.30    3.34</time>
   <time name="orth">    0.02    0.03</time>
   <time name="total">    6.51    6.69</time>
   <energy>
    <i name="e_fr_energy">   -101.15855081 </i>
    <i name="e_wo_entrp">   -101.15855081 </i>
    <i name="e_0_energy">   -101.15855081 </i>
   </energy>
  </scstep>
  <scstep>
   <time name="diag">    0.49    0.49</time>
   <time name="diis">    2.15    2.15</time>
   <time name="orth">    0.02    0.02</time>
   <time name="total">    4.71    4.73</time>
   <energy>
    <i name="e_fr_energy">   -101.16186011 </i>
    <i name="e_wo_entrp">   -101.16186011 </i>
    <i name="e_0_energy">   -101.16186011 </i>
   </energy>
  </scstep>
  <scstep>
   <time name="diag">    0.33    0.33</time>
   <time name="diis">    1.79    1.79</time>
   <time name="orth">    0.01    0.01</time>
   <time name="total">    3.92    3.92</time>
   <energy>
    <i name="e_fr_energy">   -101.16269041 </i>
    <i name="e_wo_entrp">   -101.16269041 </i>
    <i name="e_0_energy">   -101.16269041 </i>
   </energy>
  </scstep>
  <scstep>
   <time name="diag">    0.36    0.37</time>
   <time name="diis">    1.50    1.50</time>
   <time name="orth">    0.01    0.01</time>
   <time name="total">    3.60    3.61</time>
   <energy>
    <i name="e_fr_energy">   -101.16318815 </i>
    <i name="e_wo_entrp">   -101.16318815 </i>
    <i name="e_0_energy">   -101.16318815 </i>
   </energy>
  </scstep>
  <scstep>
   <time name="diag">    0.27    0.27</time>
   <time name="diis">    1.01    1.01</time>
   <time name="orth">    0.01    0.01</time>
   <time name="total">    2.87    2.88</time>
   <energy>
    <i name="e_fr_energy">   -101.16335132 </i>
    <i name="e_wo_entrp">   -101.16335132 </i>
    <i name="e_0_energy">   -101.16335132 </i>
   </energy>
  </scstep>
  <scstep>
   <time name="diag">    0.23    0.23</time>
   <time name="diis">    0.91    0.91</time>
   <time name="orth">    0.01    0.01</time>
   <time name="total">    2.45    2.45</time>
   <energy>
    <i name="e_fr_energy">   -101.16345885 </i>
    <i name="e_wo_entrp">   -101.16345885 </i>
    <i name="e_0_energy">   -101.16345885 </i>
   </energy>
  </scstep>
  <scstep>
   <time name="diag">    0.23    0.23</time>
   <time name="diis">    0.79    0.79</time>
   <time name="orth">    0.01    0.01</time>
   <time name="total">    2.35    2.35</time>
   <energy>
    <i name="e_fr_energy">   -101.16350481 </i>
    <i name="e_wo_entrp">   -101.16350481 </i>
    <i name="e_0_energy">   -101.16350481 </i>
   </energy>
  </scstep>
  <scstep>
   <time name="diag">    0.15    0.15</time>
   <time name="diis">    0.56    0.56</time>
   <time name="orth">    0.01    0.01</time>
   <time name="total">    1.91    1.91</time>
   <energy>
    <i name="e_fr_energy">   -101.16351822 </i>
    <i name="e_wo_entrp">   -101.16351822 </i>
    <i name="e_0_energy">   -101.16351822 </i>
   </energy>
  </scstep>
  <scstep>
   <time name="diag">    0.15    0.15</time>
   <time name="diis">    0.51    0.51</time>
   <time name="orth">    0.01    0.01</time>
   <time name="total">    1.70    1.70</time>
   <energy>
    <i name="e_fr_energy">   -101.16352825 </i>
    <i name="e_wo_entrp">   -101.16352825 </i>
    <i name="e_0_energy">   -101.16352825 </i>
   </energy>
  </scstep>
  <scstep>
   <time name="diag">    0.12    0.12</time>
   <time name="diis">    0.35    0.35</time>
   <time name="orth">    0.01    0.01</time>
   <time name="total">    1.26    1.26</time>
   <energy>
    <i name="alphaZ">      2.15216506 </i>
    <i name="ewald">   2396.72110587 </i>
    <i name="hartreedc">  -3528.30340865 </i>
    <i name="XCdc">    139.55203387 </i>
    <i name="pawpsdc">   3467.57912554 </i>
    <i name="pawaedc">  -3473.92680015 </i>
    <i name="eentropy">     -0.00000000 </i>
    <i name="bandstr">   -511.61101705 </i>
    <i name="atom">   1406.67326350 </i>
    <i name="e_fr_energy">   -101.16353200 </i>
    <i name="e_wo_entrp">   -101.16353200 </i>
    <i name="e_0_energy">   -101.16353200 </i>
   </energy>
  </scstep>
  <structure>
   <crystal>
    <varray name="basis" >
     <v>      15.40225029       0.00000000       0.00000000 </v>
     <v>       0.00000000      15.40225029       0.00000000 </v>
     <v>       0.00000000       0.00000000      15.40225029 </v>
    </varray>
    <i name="volume">   3653.86527022 </i>
    <varray name="rec_basis" >
     <v>       0.06492558       0.00000000       0.00000000 </v>
     <v>       0.00000000       0.06492558       0.00000000 </v>
     <v>       0.00000000       0.00000000       0.06492558 </v>
    </varray>
   </crystal>
   <varray name="positions" >
    <v>       0.34137391       0.43799587       0.57399929 </v>
    <v>       0.33545977       0.52960691       0.57401354 </v>
    <v>       0.40599016       0.58265623       0.56456774 </v>
    <v>       0.41852488       0.39555203       0.56047272 </v>
    <v>       0.45166803       0.44142250       0.42633534 </v>
    <v>       0.45271576       0.53094724       0.42316482 </v>
    <v>       0.53161274       0.57801587       0.42380247 </v>
    <v>       0.28072093       0.40168040       0.57182057 </v>
    <v>       0.47938110       0.42711991       0.57600266 </v>
    <v>       0.42138000       0.32585419       0.55014047 </v>
    <v>       0.27128396       0.55861283       0.56978382 </v>
    <v>       0.47153317       0.56018734       0.57742879 </v>
    <v>       0.39869552       0.65245406       0.55698208 </v>
    <v>       0.39428734       0.40573150       0.40725391 </v>
    <v>       0.51315510       0.40705836       0.42521466 </v>
    <v>       0.39455890       0.56647060       0.40596603 </v>
    <v>       0.59687677       0.61698027       0.42546372 </v>
   </varray>
  </structure>
  <varray name="forces" >
   <v>      -0.09531335      -0.05080090       0.03307036 </v>
   <v>       0.10406699       0.18739576       0.16207369 </v>
   <v>      -0.06196799       0.01660348       0.23066559 </v>
   <v>       0.05491978       0.03060065      -0.04766535 </v>
   <v>       0.00103398      -0.01509777      -0.10369367 </v>
   <v>      -0.07861275      -0.10235785      -0.23834720 </v>
   <v>       0.00833042       0.03244139      -0.00498794 </v>
   <v>      -0.09853531      -0.12944235      -0.03296066 </v>
   <v>       0.24832130      -0.02192937       0.17471512 </v>
   <v>      -0.03187792      -0.17224423       0.14344021 </v>
   <v>      -0.25076264       0.05685515       0.07588706 </v>
   <v>       0.09416295       0.02544339       0.14080817 </v>
   <v>      -0.02092034       0.12051595      -0.03240288 </v>
   <v>      -0.05207855      -0.02207499      -0.30127353 </v>
   <v>       0.10985854      -0.19450600       0.02829503 </v>
   <v>      -0.07246754       0.15358511      -0.22750500 </v>
   <v>       0.14184242       0.08501258      -0.00011902 </v>
  </varray>
  <varray name="stress" >
   <v>      -0.08815985      -0.07429829      -0.02309739 </v>
   <v>      -0.07429829      -0.03615248       0.05813930 </v>
   <v>      -0.02309739       0.05813930      -0.03017271 </v>
  </varray>
  <energy>
   <i name="e_fr_energy">   -101.39551429 </i>
   <i name="e_wo_entrp">   -101.39551429 </i>
   <i name="e_0_energy">   -101.39551429 </i>
  </energy>
  <time name="totalsc">  126.60  126.94</time>
 </calculation>
 <calculation>
  <scstep>
   <time name="dav">    3.34    3.34</time>
   <time name="total">    5.94    5.94</time>
   <energy>
    <i name="alphaZ">      2.15216506 </i>
    <i name="ewald">   2394.59967739 </i>
    <i name="hartreedc">  -3526.71513455 </i>
    <i name="XCdc">    139.51667974 </i>
    <i name="pawpsdc">   3467.57077552 </i>
    <i name="pawaedc">  -3473.91843373 </i>
    <i name="eentropy">     -0.00000000 </i>
    <i name="bandstr">   -511.04842089 </i>
    <i name="atom">   1406.67326350 </i>
    <i name="e_fr_energy">   -101.16942796 </i>
    <i name="e_wo_entrp">   -101.16942796 </i>
    <i name="e_0_energy">   -101.16942796 </i>
   </energy>
  </scstep>
  <scstep>
   <time name="diag">    0.54    0.54</time>
   <time name="diis">    2.86    2.86</time>
   <time name="orth">    0.02    0.02</time>
   <time name="total">    5.93    5.93</time>
   <energy>
    <i name="e_fr_energy">   -101.16945004 </i>
    <i name="e_wo_entrp">   -101.16945004 </i>
    <i name="e_0_energy">   -101.16945004 </i>
   </energy>
  </scstep>
  <scstep>
   <time name="diag">    0.59    0.60</time>
   <time name="diis">    2.72    2.72</time>
   <time name="orth">    0.03    0.03</time>
   <time name="total">    6.02    6.02</time>
   <energy>
    <i name="e_fr_energy">   -101.16944028 </i>
    <i name="e_wo_entrp">   -101.16944028 </i>
    <i name="e_0_energy">   -101.16944028 </i>
   </energy>
  </scstep>
  <scstep>
   <time name="diag">    0.54    0.54</time>
   <time name="diis">    2.18    2.18</time>
   <time name="orth">    0.02    0.02</time>
   <time name="total">    4.88    4.88</time>
   <energy>
    <i name="alphaZ">      2.15216506 </i>
    <i name="ewald">   2394.59967739 </i>
    <i name="hartreedc">  -3526.33603802 </i>
    <i name="XCdc">    139.49740991 </i>
    <i name="pawpsdc">   3460.49884644 </i>
    <i name="pawaedc">  -3466.84095418 </i>
    <i name="eentropy">     -0.00000000 </i>
    <i name="bandstr">   -511.41381809 </i>
    <i name="atom">   1406.67326350 </i>
    <i name="e_fr_energy">   -101.16944799 </i>
    <i name="e_wo_entrp">   -101.16944799 </i>
    <i name="e_0_energy">   -101.16944799 </i>
   </energy>
  </scstep>
  <structure>
   <crystal>
    <varray name="basis" >
     <v>      15.40225029       0.00000000       0.00000000 </v>
     <v>       0.00000000      15.40225029       0.00000000 </v>
     <v>       0.00000000       0.00000000      15.40225029 </v>
    </varray>
    <i name="volume">   3653.86527022 </i>
    <varray name="rec_basis" >
     <v>       0.06492558       0.00000000       0.00000000 </v>
     <v>       0.00000000       0.06492558       0.00000000 </v>
     <v>       0.00000000       0.00000000       0.06492558 </v>
    </varray>
   </crystal>
   <varray name="positions" >
    <v>       0.34132978       0.43796433       0.57400510 </v>
    <v>       0.33553393       0.52971075       0.57409002 </v>
    <v>       0.40597160       0.58265226       0.56466929 </v>
    <v>       0.41859357       0.39558855       0.56040026 </v>
    <v>       0.45163231       0.44141497       0.42637240 </v>
    <v>       0.45264300       0.53090202       0.42310081 </v>
    <v>       0.53161025       0.57802846       0.42385798 </v>
    <v>       0.28068378       0.40158571       0.57178367 </v>
    <v>       0.47956086       0.42710982       0.57615141 </v>
    <v>       0.42140028       0.32576412       0.55018837 </v>
    <v>       0.27114044       0.55864197       0.56978932 </v>
    <v>       0.47160562       0.56020918       0.57756273 </v>
    <v>       0.39869276       0.65251409       0.55691459 </v>
    <v>       0.39423234       0.40573448       0.40707119 </v>
    <v>       0.51319163       0.40694895       0.42531156 </v>
    <v>       0.39450855       0.56657894       0.40580949 </v>
    <v>       0.59697525       0.61699872       0.42550281 </v>
   </varray>
  </structure>
  <varray name="forces" >
   <v>      -0.03306779      -0.00980514       0.03073922 </v>
   <v>      -0.06370499       0.08532411       0.15986342 </v>
   <v>       0.03589826       0.10351325       0.22000032 </v>
   <v>       0.05230429       0.01373375      -0.02550336 </v>
   <v>       0.00800361      -0.08246175      -0.11979760 </v>
   <v>      -0.04883865      -0.02517786      -0.24008420 </v>
   <v>       0.09889888       0.08104380      -0.00684792 </v>
   <v>      -0.08499369      -0.11361311      -0.03262257 </v>
   <v>       0.18688927      -0.04490783       0.15554213 </v>
   <v>      -0.02894564      -0.11797254       0.14438165 </v>
   <v>      -0.16646668       0.03345132       0.08049793 </v>
   <v>       0.05513189       0.03613180       0.12941731 </v>
   <v>      -0.01530979       0.08081659      -0.02216189 </v>
   <v>      -0.02171909      -0.00967140      -0.28591845 </v>
   <v>       0.05984328      -0.16066728       0.02711692 </v>
   <v>      -0.04248185       0.12316909      -0.21378517 </v>
   <v>       0.00855869       0.00709321      -0.00083776 </v>
  </varray>
  <varray name="stress" >
   <v>      -0.29007692      -0.06548039      -0.04766008 </v>
   <v>      -0.06548039      -0.15315874       0.05350013 </v>
   <v>      -0.04766007       0.05350013      -0.03921644 </v>
  </varray>
  <energy>
   <i name="e_fr_energy">   -101.40145704 </i>
   <i name="e_wo_entrp">   -101.40145704 </i>
   <i name="e_0_energy">   -101.40145704 </i>
  </energy>
  <time name="totalsc">   36.96   37.01</time>
 </calculation>
 <calculation>
  <scstep>
   <time name="dav">    3.08    3.13</time>
   <time name="total">    5.59    5.64</time>
   <energy>
    <i name="alphaZ">      2.15216506 </i>
    <i name="ewald">   2392.09602359 </i>
    <i name="hartreedc">  -3524.30379051 </i>
    <i name="XCdc">    139.46177515 </i>
    <i name="pawpsdc">   3459.70960633 </i>
    <i name="pawaedc">  -3466.05195955 </i>
    <i name="eentropy">     -0.00000000 </i>
    <i name="bandstr">   -510.91278741 </i>
    <i name="atom">   1406.67326350 </i>
    <i name="e_fr_energy">   -101.17570383 </i>
    <i name="e_wo_entrp">   -101.17570383 </i>
    <i name="e_0_energy">   -101.17570383 </i>
   </energy>
  </scstep>
  <scstep>
   <time name="diag">    0.58    0.58</time>
   <time name="diis">    2.75    2.75</time>
   <time name="orth">    0.02    0.02</time>
   <time name="total">    5.86    5.86</time>
   <energy>
    <i name="e_fr_energy">   -101.17567239 </i>
    <i name="e_wo_entrp">   -101.17567239 </i>
    <i name="e_0_energy">   -101.17567239 </i>
   </energy>
  </scstep>
  <scstep>
   <time name="diag">    0.62    0.62</time>
   <time name="diis">    2.81    2.81</time>
   <time name="orth">    0.02    0.02</time>
   <time name="total">    6.13    6.13</time>
   <energy>
    <i name="e_fr_energy">   -101.17566049 </i>
    <i name="e_wo_entrp">   -101.17566049 </i>
    <i name="e_0_energy">   -101.17566049 </i>
   </energy>
  </scstep>
  <scstep>
   <time name="diag">    0.52    0.52</time>
   <time name="diis">    2.54    2.54</time>
   <time name="orth">    0.02    0.02</time>
   <time name="total">    4.93    4.93</time>
   <energy>
    <i name="alphaZ">      2.15216506 </i>
    <i name="ewald">   2392.09602359 </i>
    <i name="hartreedc">  -3524.00782702 </i>
    <i name="XCdc">    139.45027637 </i>
    <i name="pawpsdc">   3453.10766183 </i>
    <i name="pawaedc">  -3459.44658129 </i>
    <i name="eentropy">     -0.00000000 </i>
    <i name="bandstr">   -511.20065244 </i>
    <i name="atom">   1406.67326350 </i>
    <i name="e_fr_energy">   -101.17567040 </i>
    <i name="e_wo_entrp">   -101.17567040 </i>
    <i name="e_0_energy">   -101.17567040 </i>
   </energy>
  </scstep>
  <structure>
   <crystal>
    <varray name="basis" >
     <v>      15.40225029       0.00000000       0.00000000 </v>
     <v>       0.00000000      15.40225029       0.00000000 </v>
     <v>       0.00000000       0.00000000      15.40225029 </v>
    </varray>
    <i name="volume">   3653.86527022 </i>
    <varray name="rec_basis" >
     <v>       0.06492558       0.00000000       0.00000000 </v>
     <v>       0.00000000       0.06492558       0.00000000 </v>
     <v>       0.00000000       0.00000000       0.06492558 </v>
    </varray>
   </crystal>
   <varray name="positions" >
    <v>       0.34132201       0.43795548       0.57401163 </v>
    <v>       0.33548747       0.52977191       0.57420422 </v>
    <v>       0.40603586       0.58272799       0.56481287 </v>
    <v>       0.41869552       0.39562829       0.56031031 </v>
    <v>       0.45158486       0.44133951       0.42641385 </v>
    <v>       0.45256023       0.53090633       0.42300284 </v>
    <v>       0.53169198       0.57809359       0.42394056 </v>
    <v>       0.28064043       0.40145741       0.57172803 </v>
    <v>       0.47977460       0.42707304       0.57635869 </v>
    <v>       0.42143385       0.32567912       0.55026159 </v>
    <v>       0.27100293       0.55866367       0.56980212 </v>
    <v>       0.47167818       0.56025223       0.57775462 </v>
    <v>       0.39869433       0.65256715       0.55682142 </v>
    <v>       0.39417835       0.40575105       0.40680905 </v>
    <v>       0.51319917       0.40681520       0.42545733 </v>
    <v>       0.39446122       0.56671440       0.40558549 </v>
    <v>       0.59699805       0.61695274       0.42556111 </v>
   </varray>
  </structure>
  <varray name="forces" >
   <v>      -0.02601917       0.00253701       0.02817129 </v>
   <v>      -0.04182803       0.06918626       0.14222253 </v>
   <v>      -0.01441463       0.06796294       0.20472991 </v>
   <v>       0.06236454       0.00979296      -0.01131295 </v>
   <v>       0.00951222      -0.05738115      -0.12110856 </v>
   <v>       0.01637510      -0.00216309      -0.21818682 </v>
   <v>      -0.13629963      -0.06141506      -0.02117285 </v>
   <v>      -0.04402599      -0.08578231      -0.03147754 </v>
   <v>       0.12510369      -0.06887070       0.13613521 </v>
   <v>      -0.02683362      -0.06869254       0.14302913 </v>
   <v>      -0.12801775       0.02423841       0.08392270 </v>
   <v>       0.04069545       0.04252260       0.12565256 </v>
   <v>      -0.00845690       0.07648180      -0.01248061 </v>
   <v>      -0.00203322      -0.00801668      -0.27323987 </v>
   <v>       0.02505873      -0.13629009       0.02167383 </v>
   <v>      -0.01417401       0.09567170      -0.20336917 </v>
   <v>       0.16299321       0.10021795       0.00681122 </v>
  </varray>
  <varray name="stress" >
   <v>      -0.41722947      -0.04822205      -0.05339316 </v>
   <v>      -0.04822206      -0.28725281       0.05532099 </v>
   <v>      -0.05339316       0.05532099      -0.07477352 </v>
  </varray>
  <energy>
   <i name="e_fr_energy">   -101.40777090 </i>
   <i name="e_wo_entrp">   -101.40777090 </i>
   <i name="e_0_energy">   -101.40777090 </i>
  </energy>
  <time name="totalsc">   37.99   38.06</time>
 </calculation>
 <calculation>
  <scstep>
   <time name="dav">    3.61    3.62</time>
   <time name="total">    6.30    6.31</time>
   <energy>
    <i name="alphaZ">      2.15216506 </i>
    <i name="ewald">   2390.36885912 </i>
    <i name="hartreedc">  -3522.71503099 </i>
    <i name="XCdc">    139.42423434 </i>
    <i name="pawpsdc">   3452.30122282 </i>
    <i name="pawaedc">  -3458.64032664 </i>
    <i name="eentropy">     -0.00000000 </i>
    <i name="bandstr">   -510.74348599 </i>
    <i name="atom">   1406.67326350 </i>
    <i name="e_fr_energy">   -101.17909878 </i>
    <i name="e_wo_entrp">   -101.17909878 </i>
    <i name="e_0_energy">   -101.17909878 </i>
   </energy>
  </scstep>
  <scstep>
   <time name="diag">    0.63    0.63</time>
   <time name="diis">    2.77    2.77</time>
   <time name="orth">    0.03    0.03</time>
   <time name="total">    6.05    6.06</time>
   <energy>
    <i name="e_fr_energy">   -101.17909503 </i>
    <i name="e_wo_entrp">   -101.17909503 </i>
    <i name="e_0_energy">   -101.17909503 </i>
   </energy>
  </scstep>
  <scstep>
   <time name="diag">    0.63    0.63</time>
   <time name="diis">    2.89    2.89</time>
   <time name="orth">    0.02    0.02</time>
   <time name="total">    6.25    6.25</time>
   <energy>
    <i name="e_fr_energy">   -101.17908946 </i>
    <i name="e_wo_entrp">   -101.17908946 </i>
    <i name="e_0_energy">   -101.17908946 </i>
   </energy>
  </scstep>
  <scstep>
   <time name="diag">    0.57    0.57</time>
   <time name="diis">    1.94    1.95</time>
   <time name="orth">    0.02    0.02</time>
   <time name="total">    4.58    4.58</time>
   <energy>
    <i name="alphaZ">      2.15216506 </i>
    <i name="ewald">   2390.36885912 </i>
    <i name="hartreedc">  -3522.41674010 </i>
    <i name="XCdc">    139.40976116 </i>
    <i name="pawpsdc">   3444.70614253 </i>
    <i name="pawaedc">  -3451.04041685 </i>
    <i name="eentropy">     -0.00000000 </i>
    <i name="bandstr">   -511.03212802 </i>
    <i name="atom">   1406.67326350 </i>
    <i name="e_fr_energy">   -101.17909361 </i>
    <i name="e_wo_entrp">   -101.17909361 </i>
    <i name="e_0_energy">   -101.17909361 </i>
   </energy>
  </scstep>
  <structure>
   <crystal>
    <varray name="basis" >
     <v>      15.40225029       0.00000000       0.00000000 </v>
     <v>       0.00000000      15.40225029       0.00000000 </v>
     <v>       0.00000000       0.00000000      15.40225029 </v>
    </varray>
    <i name="volume">   3653.86527022 </i>
    <varray name="rec_basis" >
     <v>       0.06492558       0.00000000       0.00000000 </v>
     <v>       0.00000000       0.06492558       0.00000000 </v>
     <v>       0.00000000       0.00000000       0.06492558 </v>
    </varray>
   </crystal>
   <varray name="positions" >
    <v>       0.34131987       0.43795546       0.57401495 </v>
    <v>       0.33546664       0.52980520       0.57427225 </v>
    <v>       0.40605445       0.58276168       0.56490143 </v>
    <v>       0.41876684       0.39565247       0.56025773 </v>
    <v>       0.45155510       0.44130127       0.42643857 </v>
    <v>       0.45253626       0.53091928       0.42294688 </v>
    <v>       0.53163632       0.57807041       0.42398727 </v>
    <v>       0.28063036       0.40138599       0.57169233 </v>
    <v>       0.47988621       0.42703759       0.57648576 </v>
    <v>       0.42145609       0.32564562       0.55031005 </v>
    <v>       0.27092966       0.55867376       0.56981351 </v>
    <v>       0.47171879       0.56028342       0.57787848 </v>
    <v>       0.39869868       0.65260021       0.55676481 </v>
    <v>       0.39415280       0.40576265       0.40664164 </v>
    <v>       0.51318848       0.40673797       0.42554931 </v>
    <v>       0.39444349       0.56679088       0.40544283 </v>
    <v>       0.59708463       0.61696644       0.42560189 </v>
   </varray>
  </structure>
  <varray name="forces" >
   <v>      -0.01187989       0.00465526       0.02592944 </v>
   <v>      -0.04421834       0.05537491       0.13269191 </v>
   <v>      -0.02246547       0.06189270       0.19554572 </v>
   <v>       0.05170902       0.01293405      -0.00575994 </v>
   <v>       0.00560466      -0.04824132      -0.11833941 </v>
   <v>      -0.00757959      -0.01984202      -0.20836485 </v>
   <v>       0.07925854       0.06437748      -0.02117600 </v>
   <v>      -0.02431451      -0.07155317      -0.03067235 </v>
   <v>       0.10102940      -0.07600384       0.12769215 </v>
   <v>      -0.02560730      -0.04797274       0.14103483 </v>
   <v>      -0.10658191       0.01859821       0.08559260 </v>
   <v>       0.02595671       0.04665763       0.12166764 </v>
   <v>      -0.00607741       0.06769903      -0.00651153 </v>
   <v>       0.00871375      -0.00563578      -0.26591561 </v>
   <v>       0.00943791      -0.12454312       0.01816516 </v>
   <v>       0.00178808       0.07828743      -0.19594360 </v>
   <v>      -0.03477365      -0.01668470       0.00436383 </v>
  </varray>
  <varray name="stress" >
   <v>      -0.57604008      -0.08758866      -0.05866641 </v>
   <v>      -0.08758866      -0.38637733       0.05748106 </v>
   <v>      -0.05866641       0.05748106      -0.09732029 </v>
  </varray>
  <energy>
   <i name="e_fr_energy">   -101.41122447 </i>
   <i name="e_wo_entrp">   -101.41122447 </i>
   <i name="e_0_energy">   -101.41122447 </i>
  </energy>
  <time name="totalsc">   36.32   36.35</time>
 </calculation>
 <calculation>
  <scstep>
   <time name="dav">    3.34    3.34</time>
   <time name="total">    5.97    5.97</time>
   <energy>
    <i name="alphaZ">      2.15216506 </i>
    <i name="ewald">   2389.60639232 </i>
    <i name="hartreedc">  -3521.79658096 </i>
    <i name="XCdc">    139.39987216 </i>
    <i name="pawpsdc">   3443.54415703 </i>
    <i name="pawaedc">  -3449.87853338 </i>
    <i name="eentropy">     -0.00000000 </i>
    <i name="bandstr">   -510.88240328 </i>
    <i name="atom">   1406.67326350 </i>
    <i name="e_fr_energy">   -101.18166755 </i>
    <i name="e_wo_entrp">   -101.18166755 </i>
    <i name="e_0_energy">   -101.18166755 </i>
   </energy>
  </scstep>
  <scstep>
   <time name="diag">    0.58    0.58</time>
   <time name="diis">    2.83    2.83</time>
   <time name="orth">    0.03    0.03</time>
   <time name="total">    6.01    6.01</time>
   <energy>
    <i name="e_fr_energy">   -101.18167246 </i>
    <i name="e_wo_entrp">   -101.18167246 </i>
    <i name="e_0_energy">   -101.18167246 </i>
   </energy>
  </scstep>
  <scstep>
   <time name="diag">    0.65    0.65</time>
   <time name="diis">    2.19    2.19</time>
   <time name="orth">    0.02    0.02</time>
   <time name="total">    4.91    4.92</time>
   <energy>
    <i name="alphaZ">      2.15216506 </i>
    <i name="ewald">   2389.60639232 </i>
    <i name="hartreedc">  -3521.72460311 </i>
    <i name="XCdc">    139.39757216 </i>
    <i name="pawpsdc">   3441.84901056 </i>
    <i name="pawaedc">  -3448.18254948 </i>
    <i name="eentropy">     -0.00000000 </i>
    <i name="bandstr">   -510.95292564 </i>
    <i name="atom">   1406.67326350 </i>
    <i name="e_fr_energy">   -101.18167463 </i>
    <i name="e_wo_entrp">   -101.18167463 </i>
    <i name="e_0_energy">   -101.18167463 </i>
   </energy>
  </scstep>
  <structure>
   <crystal>
    <varray name="basis" >
     <v>      15.40225029       0.00000000       0.00000000 </v>
     <v>       0.00000000      15.40225029       0.00000000 </v>
     <v>       0.00000000       0.00000000      15.40225029 </v>
    </varray>
    <i name="volume">   3653.86527022 </i>
    <varray name="rec_basis" >
     <v>       0.06492558       0.00000000       0.00000000 </v>
     <v>       0.00000000       0.06492558       0.00000000 </v>
     <v>       0.00000000       0.00000000       0.06492558 </v>
    </varray>
   </crystal>
   <varray name="positions" >
    <v>       0.34132796       0.43796016       0.57401626 </v>
    <v>       0.33545083       0.52982448       0.57432727 </v>
    <v>       0.40605289       0.58278062       0.56497699 </v>
    <v>       0.41882965       0.39567590       0.56021555 </v>
    <v>       0.45152617       0.44127724       0.42646036 </v>
    <v>       0.45251688       0.53092615       0.42290355 </v>
    <v>       0.53165291       0.57808785       0.42402617 </v>
    <v>       0.28064333       0.40133497       0.57166008 </v>
    <v>       0.47995946       0.42699297       0.57659481 </v>
    <v>       0.42147718       0.32563950       0.55035546 </v>
    <v>       0.27088316       0.55867749       0.56982832 </v>
    <v>       0.47174349       0.56031700       0.57799103 </v>
    <v>       0.39870633       0.65262505       0.55671785 </v>
    <v>       0.39414186       0.40577544       0.40649035 </v>
    <v>       0.51316012       0.40667816       0.42563046 </v>
    <v>       0.39444468       0.56684502       0.40531543 </v>
    <v>       0.59708582       0.61693334       0.42563916 </v>
   </varray>
  </structure>
  <varray name="forces" >
   <v>      -0.00119737       0.00275260       0.02525319 </v>
   <v>      -0.04978748       0.04453943       0.12771864 </v>
   <v>      -0.01488407       0.06752381       0.18703332 </v>
   <v>       0.03453243       0.01534705      -0.00148969 </v>
   <v>       0.00433723      -0.04179865      -0.11765730 </v>
   <v>       0.00445920      -0.01481864      -0.19997543 </v>
   <v>       0.00613652       0.01831405      -0.02585991 </v>
   <v>      -0.01389834      -0.06270319      -0.03024984 </v>
   <v>       0.09384143      -0.07455919       0.12246534 </v>
   <v>      -0.02445787      -0.04072391       0.13743828 </v>
   <v>      -0.09450338       0.01544119       0.08658894 </v>
   <v>       0.01319673       0.04931733       0.11747530 </v>
   <v>      -0.00579626       0.05888761      -0.00056422 </v>
   <v>       0.01398426      -0.00454502      -0.25926434 </v>
   <v>       0.00314897      -0.11731403       0.01534184 </v>
   <v>       0.01164304       0.06810080      -0.19075436 </v>
   <v>       0.01924497       0.01623876       0.00650021 </v>
  </varray>
  <varray name="stress" >
   <v>      -0.60576538      -0.06725968      -0.06123214 </v>
   <v>      -0.06725968      -0.42505845       0.06010830 </v>
   <v>      -0.06123215       0.06010830      -0.12103879 </v>
  </varray>
  <energy>
   <i name="e_fr_energy">   -101.41384417 </i>
   <i name="e_wo_entrp">   -101.41384417 </i>
   <i name="e_0_energy">   -101.41384417 </i>
  </energy>
  <time name="totalsc">   33.74   35.95</time>
 </calculation>
 <calculation>
  <scstep>
   <time name="dav">    1.27    2.15</time>
   <time name="total">    3.56    4.87</time>
   <energy>
    <i name="alphaZ">      2.15216506 </i>
    <i name="ewald">   2388.52985427 </i>
    <i name="hartreedc">  -3520.78454606 </i>
    <i name="XCdc">    139.38318110 </i>
    <i name="pawpsdc">   3441.52742977 </i>
    <i name="pawaedc">  -3447.86092679 </i>
    <i name="eentropy">     -0.00000000 </i>
    <i name="bandstr">   -510.80758537 </i>
    <i name="atom">   1406.67326350 </i>
    <i name="e_fr_energy">   -101.18716453 </i>
    <i name="e_wo_entrp">   -101.18716453 </i>
    <i name="e_0_energy">   -101.18716453 </i>
   </energy>
  </scstep>
  <scstep>
   <time name="diag">    0.43    0.44</time>
   <time name="diis">    1.40    1.99</time>
   <time name="orth">    0.01    0.01</time>
   <time name="total">    3.80    4.78</time>
   <energy>
    <i name="e_fr_energy">   -101.18723191 </i>
    <i name="e_wo_entrp">   -101.18723191 </i>
    <i name="e_0_energy">   -101.18723191 </i>
   </energy>
  </scstep>
  <scstep>
   <time name="diag">    0.25    0.51</time>
   <time name="diis">    2.06    4.16</time>
   <time name="orth">    0.03    0.03</time>
   <time name="total">    4.67    7.29</time>
   <energy>
    <i name="e_fr_energy">   -101.18725522 </i>
    <i name="e_wo_entrp">   -101.18725522 </i>
    <i name="e_0_energy">   -101.18725522 </i>
   </energy>
  </scstep>
  <scstep>
   <time name="diag">    0.33    0.66</time>
   <time name="diis">    1.57    2.40</time>
   <time name="orth">    0.01    0.03</time>
   <time name="total">    3.56    6.36</time>
   <energy>
    <i name="alphaZ">      2.15216506 </i>
    <i name="ewald">   2388.52985427 </i>
    <i name="hartreedc">  -3520.71343203 </i>
    <i name="XCdc">    139.38104133 </i>
    <i name="pawpsdc">   3439.21067942 </i>
    <i name="pawaedc">  -3445.54321828 </i>
    <i name="eentropy">     -0.00000000 </i>
    <i name="bandstr">   -510.87761738 </i>
    <i name="atom">   1406.67326350 </i>
    <i name="e_fr_energy">   -101.18726412 </i>
    <i name="e_wo_entrp">   -101.18726412 </i>
    <i name="e_0_energy">   -101.18726412 </i>
   </energy>
  </scstep>
  <structure>
   <crystal>
    <varray name="basis" >
     <v>      15.40225029       0.00000000       0.00000000 </v>
     <v>       0.00000000      15.40225029       0.00000000 </v>
     <v>       0.00000000       0.00000000      15.40225029 </v>
    </varray>
    <i name="volume">   3653.86527022 </i>
    <varray name="rec_basis" >
     <v>       0.06492558       0.00000000       0.00000000 </v>
     <v>       0.00000000       0.06492558       0.00000000 </v>
     <v>       0.00000000       0.00000000       0.06492558 </v>
    </varray>
   </crystal>
   <varray name="positions" >
    <v>       0.34138987       0.43797406       0.57401539 </v>
    <v>       0.33539735       0.52983456       0.57445389 </v>
    <v>       0.40604285       0.58283072       0.56515366 </v>
    <v>       0.41895009       0.39574645       0.56012145 </v>
    <v>       0.45144436       0.44124315       0.42651612 </v>
    <v>       0.45249294       0.53094635       0.42281599 </v>
    <v>       0.53164441       0.57809506       0.42411378 </v>
    <v>       0.28073328       0.40123964       0.57157648 </v>
    <v>       0.48009837       0.42686056       0.57686391 </v>
    <v>       0.42153639       0.32567355       0.55046987 </v>
    <v>       0.27081535       0.55867238       0.56987952 </v>
    <v>       0.47175946       0.56042007       0.57827992 </v>
    <v>       0.39873332       0.65266190       0.55661180 </v>
    <v>       0.39414412       0.40581591       0.40610308 </v>
    <v>       0.51304428       0.40654997       0.42583528 </v>
    <v>       0.39449650       0.56694327       0.40499194 </v>
    <v>       0.59708554       0.61684654       0.42574087 </v>
   </varray>
  </structure>
  <varray name="forces" >
   <v>      -0.01068496       0.00471158       0.02758756 </v>
   <v>      -0.01851958       0.04997618       0.11304317 </v>
   <v>      -0.02483703       0.05550435       0.16745115 </v>
   <v>       0.02851201       0.01480740       0.00235585 </v>
   <v>      -0.00064476      -0.02799174      -0.11263333 </v>
   <v>       0.00246109      -0.02243054      -0.17903818 </v>
   <v>      -0.05998291      -0.02942048      -0.03155070 </v>
   <v>       0.00068646      -0.05128045      -0.02991346 </v>
   <v>       0.08568632      -0.06509249       0.11239102 </v>
   <v>      -0.02575141      -0.03862535       0.12754199 </v>
   <v>      -0.08815424       0.01058541       0.08652065 </v>
   <v>      -0.00141889       0.04833944       0.11007705 </v>
   <v>      -0.00950947       0.05032585       0.01048562 </v>
   <v>       0.01764233      -0.00266447      -0.24441317 </v>
   <v>      -0.00089738      -0.10567230       0.01032949 </v>
   <v>       0.02178019       0.05167081      -0.18114114 </v>
   <v>       0.08363221       0.05725679       0.01090643 </v>
  </varray>
  <varray name="stress" >
   <v>      -0.61870261      -0.04999182      -0.06145989 </v>
   <v>      -0.04999182      -0.46580455       0.06976830 </v>
   <v>      -0.06145988       0.06976830      -0.15733896 </v>
  </varray>
  <energy>
   <i name="e_fr_energy">   -101.41951275 </i>
   <i name="e_wo_entrp">   -101.41951275 </i>
   <i name="e_0_energy">   -101.41951275 </i>
  </energy>
  <time name="totalsc">   31.69   45.85</time>
 </calculation>
 <calculation>
  <scstep>
   <time name="dav">    1.90    2.81</time>
   <time name="total">    3.85    5.07</time>
   <energy>
    <i name="alphaZ">      2.15216506 </i>
    <i name="ewald">   2385.88265381 </i>
    <i name="hartreedc">  -3518.67283557 </i>
    <i name="XCdc">    139.34268445 </i>
    <i name="pawpsdc">   3438.95050401 </i>
    <i name="pawaedc">  -3445.28319315 </i>
    <i name="eentropy">     -0.00000000 </i>
    <i name="bandstr">   -510.24055519 </i>
    <i name="atom">   1406.67326350 </i>
    <i name="e_fr_energy">   -101.19531307 </i>
    <i name="e_wo_entrp">   -101.19531307 </i>
    <i name="e_0_energy">   -101.19531307 </i>
   </energy>
  </scstep>
  <scstep>
   <time name="diag">    0.61    0.68</time>
   <time name="diis">    1.83    2.11</time>
   <time name="orth">    0.01    0.01</time>
   <time name="total">    4.42    5.30</time>
   <energy>
    <i name="e_fr_energy">   -101.19549418 </i>
    <i name="e_wo_entrp">   -101.19549418 </i>
    <i name="e_0_energy">   -101.19549418 </i>
   </energy>
  </scstep>
  <scstep>
   <time name="diag">    0.42    0.42</time>
   <time name="diis">    1.99    2.16</time>
   <time name="orth">    0.01    0.02</time>
   <time name="total">    4.38    5.80</time>
   <energy>
    <i name="e_fr_energy">   -101.19553207 </i>
    <i name="e_wo_entrp">   -101.19553207 </i>
    <i name="e_0_energy">   -101.19553207 </i>
   </energy>
  </scstep>
  <scstep>
   <time name="diag">    0.32    0.64</time>
   <time name="diis">    1.97    2.44</time>
   <time name="orth">    0.01    0.03</time>
   <time name="total">    4.32    5.82</time>
   <energy>
    <i name="e_fr_energy">   -101.19556803 </i>
    <i name="e_wo_entrp">   -101.19556803 </i>
    <i name="e_0_energy">   -101.19556803 </i>
   </energy>
  </scstep>
  <scstep>
   <time name="diag">    0.34    0.34</time>
   <time name="diis">    1.53    1.73</time>
   <time name="orth">    0.01    0.06</time>
   <time name="total">    3.15    3.66</time>
   <energy>
    <i name="alphaZ">      2.15216506 </i>
    <i name="ewald">   2385.88265381 </i>
    <i name="hartreedc">  -3518.28662712 </i>
    <i name="XCdc">    139.32357027 </i>
    <i name="pawpsdc">   3428.11254344 </i>
    <i name="pawaedc">  -3434.43770144 </i>
    <i name="eentropy">     -0.00000000 </i>
    <i name="bandstr">   -510.61544315 </i>
    <i name="atom">   1406.67326350 </i>
    <i name="e_fr_energy">   -101.19557563 </i>
    <i name="e_wo_entrp">   -101.19557563 </i>
    <i name="e_0_energy">   -101.19557563 </i>
   </energy>
  </scstep>
  <structure>
   <crystal>
    <varray name="basis" >
     <v>      15.40225029       0.00000000       0.00000000 </v>
     <v>       0.00000000      15.40225029       0.00000000 </v>
     <v>       0.00000000       0.00000000      15.40225029 </v>
    </varray>
    <i name="volume">   3653.86527022 </i>
    <varray name="rec_basis" >
     <v>       0.06492558       0.00000000       0.00000000 </v>
     <v>       0.00000000       0.06492558       0.00000000 </v>
     <v>       0.00000000       0.00000000       0.06492558 </v>
    </varray>
   </crystal>
   <varray name="positions" >
    <v>       0.34148510       0.43800094       0.57401863 </v>
    <v>       0.33534332       0.52986991       0.57467696 </v>
    <v>       0.40601325       0.58291375       0.56546814 </v>
    <v>       0.41916697       0.39587654       0.55995152 </v>
    <v>       0.45128695       0.44119642       0.42661807 </v>
    <v>       0.45244871       0.53097305       0.42266922 </v>
    <v>       0.53147738       0.57800700       0.42426875 </v>
    <v>       0.28091447       0.40107112       0.57142080 </v>
    <v>       0.48035943       0.42662993       0.57735796 </v>
    <v>       0.42164262       0.32572800       0.55067240 </v>
    <v>       0.27068487       0.55865823       0.56998078 </v>
    <v>       0.47177029       0.56061032       0.57881171 </v>
    <v>       0.39877749       0.65272225       0.55642602 </v>
    <v>       0.39415116       0.40589401       0.40539098 </v>
    <v>       0.51283041       0.40631893       0.42621124 </v>
    <v>       0.39460321       0.56711068       0.40439509 </v>
    <v>       0.59723438       0.61677824       0.42593514 </v>
   </varray>
  </structure>
  <varray name="forces" >
   <v>       0.00184152       0.01525593       0.02989932 </v>
   <v>      -0.02189897       0.03878780       0.09273669 </v>
   <v>      -0.01664647       0.05986041       0.13463953 </v>
   <v>       0.01985931       0.01307412       0.01049237 </v>
   <v>      -0.01071384      -0.04314580      -0.10171322 </v>
   <v>      -0.05719742      -0.04956132      -0.14953659 </v>
   <v>       0.40697605       0.23278005      -0.02506252 </v>
   <v>       0.01207253      -0.03481613      -0.02896918 </v>
   <v>       0.06402211      -0.05056655       0.09095940 </v>
   <v>      -0.02731949      -0.02981291       0.10900921 </v>
   <v>      -0.06019287      -0.00097498       0.08680619 </v>
   <v>      -0.02219606       0.04613962       0.09538291 </v>
   <v>      -0.01629018       0.03545081       0.02988118 </v>
   <v>       0.02535615       0.00143290      -0.21725304 </v>
   <v>      -0.01152646      -0.08148380       0.00085644 </v>
   <v>       0.03133636       0.02395320      -0.16428614 </v>
   <v>      -0.31748230      -0.17637336       0.00615746 </v>
  </varray>
  <varray name="stress" >
   <v>      -0.82626233      -0.11594070      -0.07230727 </v>
   <v>      -0.11594070      -0.58799995       0.08315137 </v>
   <v>      -0.07230727       0.08315137      -0.23362189 </v>
  </varray>
  <energy>
   <i name="e_fr_energy">   -101.42791382 </i>
   <i name="e_wo_entrp">   -101.42791382 </i>
   <i name="e_0_energy">   -101.42791382 </i>
  </energy>
  <time name="totalsc">   38.53   48.86</time>
 </calculation>
 <calculation>
  <scstep>
   <time name="dav">    2.67    2.75</time>
   <time name="total">    4.48    6.15</time>
   <energy>
    <i name="alphaZ">      2.15216506 </i>
    <i name="ewald">   2385.96805088 </i>
    <i name="hartreedc">  -3518.16758889 </i>
    <i name="XCdc">    139.32869709 </i>
    <i name="pawpsdc">   3427.40071064 </i>
    <i name="pawaedc">  -3433.72592838 </i>
    <i name="eentropy">     -0.00000000 </i>
    <i name="bandstr">   -510.82878707 </i>
    <i name="atom">   1406.67326350 </i>
    <i name="e_fr_energy">   -101.19941718 </i>
    <i name="e_wo_entrp">   -101.19941718 </i>
    <i name="e_0_energy">   -101.19941718 </i>
   </energy>
  </scstep>
  <scstep>
   <time name="diag">    0.66    0.74</time>
   <time name="diis">    2.32    2.75</time>
   <time name="orth">    0.01    0.03</time>
   <time name="total">    4.70    5.93</time>
   <energy>
    <i name="e_fr_energy">   -101.19940776 </i>
    <i name="e_wo_entrp">   -101.19940776 </i>
    <i name="e_0_energy">   -101.19940776 </i>
   </energy>
  </scstep>
  <scstep>
   <time name="diag">    0.30    0.30</time>
   <time name="diis">    1.89    2.21</time>
   <time name="orth">    0.01    0.01</time>
   <time name="total">    3.63    4.79</time>
   <energy>
    <i name="e_fr_energy">   -101.19939418 </i>
    <i name="e_wo_entrp">   -101.19939418 </i>
    <i name="e_0_energy">   -101.19939418 </i>
   </energy>
  </scstep>
  <scstep>
   <time name="diag">    0.33    0.51</time>
   <time name="diis">    1.82    2.14</time>
   <time name="orth">    0.02    0.02</time>
   <time name="total">    4.09    5.02</time>
   <energy>
    <i name="e_fr_energy">   -101.19940450 </i>
    <i name="e_wo_entrp">   -101.19940450 </i>
    <i name="e_0_energy">   -101.19940450 </i>
   </energy>
  </scstep>
  <scstep>
   <time name="diag">    0.32    0.56</time>
   <time name="diis">    0.99    2.00</time>
   <time name="orth">    0.01    0.01</time>
   <time name="total">    2.24    4.27</time>
   <energy>
    <i name="alphaZ">      2.15216506 </i>
    <i name="ewald">   2385.96805088 </i>
    <i name="hartreedc">  -3518.39934046 </i>
    <i name="XCdc">    139.34191192 </i>
    <i name="pawpsdc">   3431.90830239 </i>
    <i name="pawaedc">  -3438.23807597 </i>
    <i name="eentropy">     -0.00000000 </i>
    <i name="bandstr">   -510.60568607 </i>
    <i name="atom">   1406.67326350 </i>
    <i name="e_fr_energy">   -101.19940876 </i>
    <i name="e_wo_entrp">   -101.19940876 </i>
    <i name="e_0_energy">   -101.19940876 </i>
   </energy>
  </scstep>
  <structure>
   <crystal>
    <varray name="basis" >
     <v>      15.40225029       0.00000000       0.00000000 </v>
     <v>       0.00000000      15.40225029       0.00000000 </v>
     <v>       0.00000000       0.00000000      15.40225029 </v>
    </varray>
    <i name="volume">   3653.86527022 </i>
    <varray name="rec_basis" >
     <v>       0.06492558       0.00000000       0.00000000 </v>
     <v>       0.00000000       0.06492558       0.00000000 </v>
     <v>       0.00000000       0.00000000       0.06492558 </v>
    </varray>
   </crystal>
   <varray name="positions" >
    <v>       0.34153018       0.43801786       0.57402193 </v>
    <v>       0.33532328       0.52988148       0.57476241 </v>
    <v>       0.40600143       0.58295137       0.56558870 </v>
    <v>       0.41925203       0.39593120       0.55988573 </v>
    <v>       0.45121523       0.44117226       0.42666140 </v>
    <v>       0.45240246       0.53096834       0.42261866 </v>
    <v>       0.53161464       0.57808412       0.42433533 </v>
    <v>       0.28100138       0.40100941       0.57135543 </v>
    <v>       0.48045845       0.42653868       0.57755781 </v>
    <v>       0.42168543       0.32575542       0.55075004 </v>
    <v>       0.27064271       0.55864551       0.57002958 </v>
    <v>       0.47175881       0.56069139       0.57903130 </v>
    <v>       0.39879287       0.65273951       0.55635761 </v>
    <v>       0.39416123       0.40593039       0.40509749 </v>
    <v>       0.51273323       0.40623262       0.42636497 </v>
    <v>       0.39465786       0.56716515       0.40414763 </v>
    <v>       0.59711921       0.61664679       0.42601445 </v>
   </varray>
  </structure>
  <varray name="forces" >
   <v>       0.00412739       0.01691225       0.03223232 </v>
   <v>      -0.01895236       0.03578460       0.08658079 </v>
   <v>      -0.01689950       0.05624892       0.11742765 </v>
   <v>       0.01836950       0.01085057       0.01583986 </v>
   <v>      -0.00562695      -0.03198491      -0.09989334 </v>
   <v>       0.02767633      -0.00954008      -0.13218388 </v>
   <v>      -0.14246319      -0.09644796      -0.03850692 </v>
   <v>       0.01345909      -0.02951387      -0.02879598 </v>
   <v>       0.05706967      -0.04465413       0.08230987 </v>
   <v>      -0.02801200      -0.02775393       0.10189937 </v>
   <v>      -0.05400013      -0.00344648       0.08607464 </v>
   <v>      -0.02419760       0.04349398       0.09099503 </v>
   <v>      -0.01959604       0.03543590       0.03668285 </v>
   <v>       0.02283802      -0.00103783      -0.20618306 </v>
   <v>      -0.01240913      -0.07452824      -0.00327241 </v>
   <v>       0.03062578       0.02081021      -0.16092620 </v>
   <v>       0.14799111       0.09937101       0.01971943 </v>
  </varray>
  <varray name="stress" >
   <v>      -0.68421141      -0.01818235      -0.06917884 </v>
   <v>      -0.01818235      -0.56558308       0.08793574 </v>
   <v>      -0.06917883       0.08793574      -0.27039741 </v>
  </varray>
  <energy>
   <i name="e_fr_energy">   -101.43182118 </i>
   <i name="e_wo_entrp">   -101.43182118 </i>
   <i name="e_0_energy">   -101.43182118 </i>
  </energy>
  <time name="totalsc">   36.73   49.12</time>
 </calculation>
 <calculation>
  <scstep>
   <time name="dav">    1.82    2.05</time>
   <time name="total">    4.25    4.83</time>
   <energy>
    <i name="alphaZ">      2.15216506 </i>
    <i name="ewald">   2384.58737417 </i>
    <i name="hartreedc">  -3517.31719045 </i>
    <i name="XCdc">    139.32117133 </i>
    <i name="pawpsdc">   3431.92730111 </i>
    <i name="pawaedc">  -3438.25707371 </i>
    <i name="eentropy">     -0.00000000 </i>
    <i name="bandstr">   -510.29051013 </i>
    <i name="atom">   1406.67326350 </i>
    <i name="e_fr_energy">   -101.20349913 </i>
    <i name="e_wo_entrp">   -101.20349913 </i>
    <i name="e_0_energy">   -101.20349913 </i>
   </energy>
  </scstep>
  <scstep>
   <time name="diag">    0.39    0.39</time>
   <time name="diis">    1.58    2.25</time>
   <time name="orth">    0.01    0.01</time>
   <time name="total">    3.88    4.70</time>
   <energy>
    <i name="e_fr_energy">   -101.20355976 </i>
    <i name="e_wo_entrp">   -101.20355976 </i>
    <i name="e_0_energy">   -101.20355976 </i>
   </energy>
  </scstep>
  <scstep>
   <time name="diag">    0.32    0.46</time>
   <time name="diis">    1.68    2.83</time>
   <time name="orth">    0.01    0.04</time>
   <time name="total">    3.47    5.09</time>
   <energy>
    <i name="e_fr_energy">   -101.20357509 </i>
    <i name="e_wo_entrp">   -101.20357509 </i>
    <i name="e_0_energy">   -101.20357509 </i>
   </energy>
  </scstep>
  <scstep>
   <time name="diag">    0.37    0.42</time>
   <time name="diis">    1.85    2.71</time>
   <time name="orth">    0.02    0.03</time>
   <time name="total">    4.15    5.85</time>
   <energy>
    <i name="e_fr_energy">   -101.20358803 </i>
    <i name="e_wo_entrp">   -101.20358803 </i>
    <i name="e_0_energy">   -101.20358803 </i>
   </energy>
  </scstep>
  <scstep>
   <time name="diag">    0.33    0.59</time>
   <time name="diis">    1.28    2.19</time>
   <time name="orth">    0.02    0.02</time>
   <time name="total">    3.25    4.70</time>
   <energy>
    <i name="alphaZ">      2.15216506 </i>
    <i name="ewald">   2384.58737417 </i>
    <i name="hartreedc">  -3517.14073952 </i>
    <i name="XCdc">    139.31241207 </i>
    <i name="pawpsdc">   3426.53826751 </i>
    <i name="pawaedc">  -3432.86457286 </i>
    <i name="eentropy">     -0.00000000 </i>
    <i name="bandstr">   -510.46176178 </i>
    <i name="atom">   1406.67326350 </i>
    <i name="e_fr_energy">   -101.20359185 </i>
    <i name="e_wo_entrp">   -101.20359185 </i>
    <i name="e_0_energy">   -101.20359185 </i>
   </energy>
  </scstep>
  <structure>
   <crystal>
    <varray name="basis" >
     <v>      15.40225029       0.00000000       0.00000000 </v>
     <v>       0.00000000      15.40225029       0.00000000 </v>
     <v>       0.00000000       0.00000000      15.40225029 </v>
    </varray>
    <i name="volume">   3653.86527022 </i>
    <varray name="rec_basis" >
     <v>       0.06492558       0.00000000       0.00000000 </v>
     <v>       0.00000000       0.06492558       0.00000000 </v>
     <v>       0.00000000       0.00000000       0.06492558 </v>
    </varray>
   </crystal>
   <varray name="positions" >
    <v>       0.34158621       0.43804188       0.57402998 </v>
    <v>       0.33529527       0.52990551       0.57488123 </v>
    <v>       0.40599543       0.58300906       0.56574864 </v>
    <v>       0.41937457       0.39600375       0.55979473 </v>
    <v>       0.45111916       0.44113330       0.42672219 </v>
    <v>       0.45237130       0.53098025       0.42255343 </v>
    <v>       0.53155240       0.57803821       0.42442461 </v>
    <v>       0.28110654       0.40091714       0.57126499 </v>
    <v>       0.48060910       0.42642528       0.57783304 </v>
    <v>       0.42174236       0.32577685       0.55085113 </v>
    <v>       0.27057456       0.55862889       0.57009629 </v>
    <v>       0.47174931       0.56079783       0.57933310 </v>
    <v>       0.39880842       0.65276796       0.55626451 </v>
    <v>       0.39416590       0.40597867       0.40469606 </v>
    <v>       0.51261103       0.40611099       0.42657646 </v>
    <v>       0.39472061       0.56724772       0.40380448 </v>
    <v>       0.59718981       0.61660122       0.42612981 </v>
   </varray>
  </structure>
  <varray name="forces" >
   <v>       0.00939429       0.01949199       0.03229969 </v>
   <v>      -0.01337755       0.03015764       0.07619916 </v>
   <v>      -0.02574632       0.04711077       0.09949771 </v>
   <v>       0.01802274       0.00901546       0.01986243 </v>
   <v>      -0.00760783      -0.02909115      -0.09112063 </v>
   <v>       0.00961600      -0.02207575      -0.11601654 </v>
   <v>       0.04354887       0.00769422      -0.03669064 </v>
   <v>       0.02050554      -0.01875579      -0.02723435 </v>
   <v>       0.03969875      -0.04086621       0.06878465 </v>
   <v>      -0.02873384      -0.01690389       0.09344466 </v>
   <v>      -0.04186965      -0.00734793       0.08564595 </v>
   <v>      -0.02747785       0.04113851       0.08392502 </v>
   <v>      -0.02253030       0.03504311       0.04578621 </v>
   <v>       0.02450732      -0.00162148      -0.19136134 </v>
   <v>      -0.01722719      -0.06342238      -0.00902757 </v>
   <v>       0.03635619       0.00669507      -0.15137615 </v>
   <v>      -0.01707914       0.00373782       0.01738172 </v>
  </varray>
  <varray name="stress" >
   <v>      -0.78027365      -0.04992200      -0.07461084 </v>
   <v>      -0.04992200      -0.63045432       0.09364602 </v>
   <v>      -0.07461084       0.09364602      -0.31384444 </v>
  </varray>
  <energy>
   <i name="e_fr_energy">   -101.43604370 </i>
   <i name="e_wo_entrp">   -101.43604370 </i>
   <i name="e_0_energy">   -101.43604370 </i>
  </energy>
  <time name="totalsc">   33.36   43.43</time>
 </calculation>
 <calculation>
  <scstep>
   <time name="dav">    2.28    3.22</time>
   <time name="total">    4.31    5.58</time>
   <energy>
    <i name="alphaZ">      2.15216506 </i>
    <i name="ewald">   2383.93534291 </i>
    <i name="hartreedc">  -3516.64927268 </i>
    <i name="XCdc">    139.30247204 </i>
    <i name="pawpsdc">   3426.18751722 </i>
    <i name="pawaedc">  -3432.51378531 </i>
    <i name="eentropy">     -0.00000000 </i>
    <i name="bandstr">   -510.29326417 </i>
    <i name="atom">   1406.67326350 </i>
    <i name="e_fr_energy">   -101.20556143 </i>
    <i name="e_wo_entrp">   -101.20556143 </i>
    <i name="e_0_energy">   -101.20556143 </i>
   </energy>
  </scstep>
  <scstep>
   <time name="diag">    0.35    0.36</time>
   <time name="diis">    1.67    2.14</time>
   <time name="orth">    0.03    0.06</time>
   <time name="total">    4.41    5.08</time>
   <energy>
    <i name="e_fr_energy">   -101.20558223 </i>
    <i name="e_wo_entrp">   -101.20558223 </i>
    <i name="e_0_energy">   -101.20558223 </i>
   </energy>
  </scstep>
  <scstep>
   <time name="diag">    0.30    0.30</time>
   <time name="diis">    1.80    2.29</time>
   <time name="orth">    0.01    0.03</time>
   <time name="total">    5.25    6.13</time>
   <energy>
    <i name="e_fr_energy">   -101.20558795 </i>
    <i name="e_wo_entrp">   -101.20558795 </i>
    <i name="e_0_energy">   -101.20558795 </i>
   </energy>
  </scstep>
  <scstep>
   <time name="diag">    0.34    0.47</time>
   <time name="diis">    1.20    1.35</time>
   <time name="orth">    0.01    0.01</time>
   <time name="total">    2.77    3.57</time>
   <energy>
    <i name="alphaZ">      2.15216506 </i>
    <i name="ewald">   2383.93534291 </i>
    <i name="hartreedc">  -3516.53061650 </i>
[...]
   <v>      -0.00223062       0.00076011       0.00693466 </v>
   <v>      -0.00824488       0.00958244       0.01105805 </v>
   <v>       0.00267181       0.00153396       0.00716494 </v>
   <v>      -0.00084121      -0.00146831      -0.01591437 </v>
   <v>       0.00455885      -0.00333488      -0.01533633 </v>
   <v>       0.00133252      -0.01205068       0.00354147 </v>
   <v>       0.00542524      -0.00273556      -0.00348623 </v>
   <v>       0.00454436       0.00969972      -0.01024086 </v>
   <v>       0.00893755       0.00398774      -0.01448721 </v>
   <v>      -0.00312228      -0.00345905       0.01526124 </v>
   <v>      -0.00436121       0.01247367      -0.00893333 </v>
   <v>      -0.01545136       0.00940440       0.01096987 </v>
   <v>      -0.00601442      -0.00186184      -0.00123260 </v>
   <v>      -0.00656886      -0.00958948       0.01132219 </v>
   <v>       0.00479116      -0.00113012      -0.00849899 </v>
   <v>       0.01179942      -0.01276576       0.01025433 </v>
  </varray>
  <varray name="stress" >
   <v>      -0.79969321      -0.01228867      -0.00717081 </v>
   <v>      -0.01228867      -0.81092407       0.03935831 </v>
   <v>      -0.00717081       0.03935831      -0.89523346 </v>
  </varray>
  <energy>
   <i name="e_fr_energy">   -101.47811893 </i>
   <i name="e_wo_entrp">   -101.47811893 </i>
   <i name="e_0_energy">   -101.47811893 </i>
  </energy>
  <time name="totalsc">   21.60   29.34</time>
 </calculation>
 <calculation>
  <scstep>
   <time name="dav">    1.41    1.83</time>
   <time name="total">    2.89    4.66</time>
   <energy>
    <i name="alphaZ">      2.15216506 </i>
    <i name="ewald">   2369.32694132 </i>
    <i name="hartreedc">  -3502.79030106 </i>
    <i name="XCdc">    139.21183634 </i>
    <i name="pawpsdc">   3406.31324252 </i>
    <i name="pawaedc">  -3412.63014693 </i>
    <i name="eentropy">     -0.00000000 </i>
    <i name="bandstr">   -509.50556904 </i>
    <i name="atom">   1406.67326350 </i>
    <i name="e_fr_energy">   -101.24856828 </i>
    <i name="e_wo_entrp">   -101.24856828 </i>
    <i name="e_0_energy">   -101.24856828 </i>
   </energy>
  </scstep>
  <scstep>
   <time name="diag">    0.22    0.46</time>
   <time name="diis">    1.46    2.13</time>
   <time name="orth">    0.01    0.03</time>
   <time name="total">    3.27    4.60</time>
   <energy>
    <i name="e_fr_energy">   -101.24860381 </i>
    <i name="e_wo_entrp">   -101.24860381 </i>
    <i name="e_0_energy">   -101.24860381 </i>
   </energy>
  </scstep>
  <scstep>
   <time name="diag">    0.16    0.17</time>
   <time name="diis">    0.90    0.95</time>
   <time name="orth">    0.01    0.01</time>
   <time name="total">    2.33    2.59</time>
   <energy>
    <i name="e_fr_energy">   -101.24861234 </i>
    <i name="e_wo_entrp">   -101.24861234 </i>
    <i name="e_0_energy">   -101.24861234 </i>
   </energy>
  </scstep>
  <scstep>
   <time name="diag">    0.29    0.29</time>
   <time name="diis">    0.74    0.74</time>
   <time name="orth">    0.00    0.00</time>
   <time name="total">    1.94    2.01</time>
   <energy>
    <i name="alphaZ">      2.15216506 </i>
    <i name="ewald">   2369.32694132 </i>
    <i name="hartreedc">  -3502.80339224 </i>
    <i name="XCdc">    139.21297286 </i>
    <i name="pawpsdc">   3407.06777052 </i>
    <i name="pawaedc">  -3413.38503632 </i>
    <i name="eentropy">     -0.00000000 </i>
    <i name="bandstr">   -509.49329969 </i>
    <i name="atom">   1406.67326350 </i>
    <i name="e_fr_energy">   -101.24861498 </i>
    <i name="e_wo_entrp">   -101.24861498 </i>
    <i name="e_0_energy">   -101.24861498 </i>
   </energy>
  </scstep>
  <structure>
   <crystal>
    <varray name="basis" >
     <v>      15.40225029       0.00000000       0.00000000 </v>
     <v>       0.00000000      15.40225029       0.00000000 </v>
     <v>       0.00000000       0.00000000      15.40225029 </v>
    </varray>
    <i name="volume">   3653.86527022 </i>
    <varray name="rec_basis" >
     <v>       0.06492558       0.00000000       0.00000000 </v>
     <v>       0.00000000       0.06492558       0.00000000 </v>
     <v>       0.00000000       0.00000000       0.06492558 </v>
    </varray>
   </crystal>
   <varray name="positions" >
    <v>       0.34247416       0.43918903       0.57384667 </v>
    <v>       0.33457591       0.53061348       0.57756784 </v>
    <v>       0.40412194       0.58536653       0.56786937 </v>
    <v>       0.42071000       0.39816619       0.55613795 </v>
    <v>       0.44998555       0.43886362       0.42691062 </v>
    <v>       0.45319633       0.52911958       0.42002877 </v>
    <v>       0.53237371       0.57572465       0.42440272 </v>
    <v>       0.28266947       0.40098638       0.57109799 </v>
    <v>       0.48174929       0.42688328       0.57778878 </v>
    <v>       0.42204317       0.32756076       0.54977360 </v>
    <v>       0.26909825       0.55812085       0.57726053 </v>
    <v>       0.47046909       0.56419050       0.58008807 </v>
    <v>       0.39527695       0.65525808       0.56070613 </v>
    <v>       0.39475276       0.40518716       0.39846112 </v>
    <v>       0.51102750       0.40290047       0.42688370 </v>
    <v>       0.39734288       0.56536420       0.39609760 </v>
    <v>       0.59765434       0.61485548       0.42807177 </v>
   </varray>
  </structure>
  <varray name="forces" >
   <v>       0.00365069      -0.00155680       0.00428132 </v>
   <v>      -0.00174325       0.00195168       0.00924112 </v>
   <v>      -0.00952201       0.00941418       0.01272720 </v>
   <v>       0.00035472       0.00086610       0.01202617 </v>
   <v>       0.00014072      -0.00007653      -0.02046918 </v>
   <v>       0.00474847      -0.00470154      -0.02074141 </v>
   <v>       0.01400442      -0.00482362      -0.00108566 </v>
   <v>       0.00388928      -0.00211430      -0.00428111 </v>
   <v>       0.00467089       0.00890131      -0.01014088 </v>
   <v>       0.00761374       0.00240670      -0.00888926 </v>
   <v>      -0.00389240      -0.00362215       0.01318900 </v>
   <v>      -0.00451921       0.01287187      -0.00915473 </v>
   <v>      -0.01593496       0.00952467       0.01325078 </v>
   <v>      -0.00617148      -0.00222160      -0.00209102 </v>
   <v>      -0.00468027      -0.00975970       0.00736659 </v>
   <v>       0.00445912       0.00025642      -0.00788185 </v>
   <v>       0.00293154      -0.01731670       0.01265292 </v>
  </varray>
  <varray name="stress" >
   <v>      -0.79702739      -0.01220604      -0.01281452 </v>
   <v>      -0.01220604      -0.80649634       0.03514993 </v>
   <v>      -0.01281453       0.03514993      -0.87961672 </v>
  </varray>
  <energy>
   <i name="e_fr_energy">   -101.47846488 </i>
   <i name="e_wo_entrp">   -101.47846488 </i>
   <i name="e_0_energy">   -101.47846488 </i>
  </energy>
  <time name="totalsc">   18.56   25.22</time>
 </calculation>
 <calculation>
  <scstep>
   <time name="dav">    1.95    3.61</time>
   <time name="total">    3.84    6.05</time>
   <energy>
    <i name="alphaZ">      2.15216506 </i>
    <i name="ewald">   2369.46810968 </i>
    <i name="hartreedc">  -3502.95543556 </i>
    <i name="XCdc">    139.21254048 </i>
    <i name="pawpsdc">   3407.11635848 </i>
    <i name="pawaedc">  -3413.43359089 </i>
    <i name="eentropy">     -0.00000000 </i>
    <i name="bandstr">   -509.48186135 </i>
    <i name="atom">   1406.67326350 </i>
    <i name="e_fr_energy">   -101.24845061 </i>
    <i name="e_wo_entrp">   -101.24845061 </i>
    <i name="e_0_energy">   -101.24845061 </i>
   </energy>
  </scstep>
  <scstep>
   <time name="diag">    0.30    0.34</time>
   <time name="diis">    1.31    1.46</time>
   <time name="orth">    0.01    0.01</time>
   <time name="total">    2.98    3.95</time>
   <energy>
    <i name="e_fr_energy">   -101.24845947 </i>
    <i name="e_wo_entrp">   -101.24845947 </i>
    <i name="e_0_energy">   -101.24845947 </i>
   </energy>
  </scstep>
  <scstep>
   <time name="diag">    0.12    0.16</time>
   <time name="diis">    0.49    0.77</time>
   <time name="orth">    0.00    0.02</time>
   <time name="total">    1.22    1.89</time>
   <energy>
    <i name="alphaZ">      2.15216506 </i>
    <i name="ewald">   2369.46810968 </i>
    <i name="hartreedc">  -3502.94712221 </i>
    <i name="XCdc">    139.21190821 </i>
    <i name="pawpsdc">   3406.86861395 </i>
    <i name="pawaedc">  -3413.18567689 </i>
    <i name="eentropy">     -0.00000000 </i>
    <i name="bandstr">   -509.48972353 </i>
    <i name="atom">   1406.67326350 </i>
    <i name="e_fr_energy">   -101.24846223 </i>
    <i name="e_wo_entrp">   -101.24846223 </i>
    <i name="e_0_energy">   -101.24846223 </i>
   </energy>
  </scstep>
  <structure>
   <crystal>
    <varray name="basis" >
     <v>      15.40225029       0.00000000       0.00000000 </v>
     <v>       0.00000000      15.40225029       0.00000000 </v>
     <v>       0.00000000       0.00000000      15.40225029 </v>
    </varray>
    <i name="volume">   3653.86527022 </i>
    <varray name="rec_basis" >
     <v>       0.06492558       0.00000000       0.00000000 </v>
     <v>       0.00000000       0.06492558       0.00000000 </v>
     <v>       0.00000000       0.00000000       0.06492558 </v>
    </varray>
   </crystal>
   <varray name="positions" >
    <v>       0.34245974       0.43918838       0.57385142 </v>
    <v>       0.33457859       0.53060411       0.57755017 </v>
    <v>       0.40415172       0.58533426       0.56783347 </v>
    <v>       0.42070208       0.39815709       0.55612424 </v>
    <v>       0.44998917       0.43886461       0.42695817 </v>
    <v>       0.45318434       0.52914038       0.42007075 </v>
    <v>       0.53236406       0.57575762       0.42437678 </v>
    <v>       0.28264741       0.40099530       0.57110648 </v>
    <v>       0.48173696       0.42685017       0.57782341 </v>
    <v>       0.42201262       0.32754211       0.54983279 </v>
    <v>       0.26910898       0.55813038       0.57720375 </v>
    <v>       0.47048377       0.56414989       0.58011728 </v>
    <v>       0.39532673       0.65522945       0.56067266 </v>
    <v>       0.39477361       0.40519389       0.39846614 </v>
    <v>       0.51105183       0.40293100       0.42684075 </v>
    <v>       0.39732596       0.56537088       0.39612895 </v>
    <v>       0.59762693       0.61491078       0.42804213 </v>
   </varray>
  </structure>
  <varray name="forces" >
   <v>       0.00504396      -0.00085605       0.00146007 </v>
   <v>      -0.00153899       0.00204081       0.00752020 </v>
   <v>      -0.00980225       0.01009545       0.01143850 </v>
   <v>       0.00146818       0.00153589       0.01025761 </v>
   <v>      -0.00064758      -0.00042060      -0.01927100 </v>
   <v>       0.00554275      -0.00562612      -0.01836280 </v>
   <v>       0.00379602      -0.00951549       0.00253138 </v>
   <v>       0.00527751      -0.00211194      -0.00407837 </v>
   <v>       0.00482442       0.00982095      -0.01059524 </v>
   <v>       0.00880478       0.00396510      -0.01252396 </v>
   <v>      -0.00412981      -0.00364979       0.01513139 </v>
   <v>      -0.00466326       0.01346108      -0.00966756 </v>
   <v>      -0.01608750       0.00973796       0.01253259 </v>
   <v>      -0.00670605      -0.00238212      -0.00194097 </v>
   <v>      -0.00573594      -0.00990157       0.00980810 </v>
   <v>       0.00531374      -0.00019134      -0.00879388 </v>
   <v>       0.00924000      -0.01600223       0.01455395 </v>
  </varray>
  <varray name="stress" >
   <v>      -0.79797726      -0.01226476      -0.00910678 </v>
   <v>      -0.01226476      -0.80929100       0.03921073 </v>
   <v>      -0.00910678       0.03921073      -0.88521889 </v>
  </varray>
  <energy>
   <i name="e_fr_energy">   -101.47828879 </i>
   <i name="e_wo_entrp">   -101.47828879 </i>
   <i name="e_0_energy">   -101.47828879 </i>
  </energy>
  <time name="totalsc">   15.35   22.02</time>
 </calculation>
 <calculation>
  <scstep>
   <time name="dav">    1.65    2.91</time>
   <time name="total">    3.17    5.11</time>
   <energy>
    <i name="alphaZ">      2.15216506 </i>
    <i name="ewald">   2369.42697400 </i>
    <i name="hartreedc">  -3502.89943901 </i>
    <i name="XCdc">    139.21219949 </i>
    <i name="pawpsdc">   3406.80052360 </i>
    <i name="pawaedc">  -3413.11758944 </i>
    <i name="eentropy">     -0.00000000 </i>
    <i name="bandstr">   -509.49663719 </i>
    <i name="atom">   1406.67326350 </i>
    <i name="e_fr_energy">   -101.24853998 </i>
    <i name="e_wo_entrp">   -101.24853998 </i>
    <i name="e_0_energy">   -101.24853998 </i>
   </energy>
  </scstep>
  <scstep>
   <time name="diag">    0.25    0.26</time>
   <time name="diis">    1.09    1.13</time>
   <time name="orth">    0.01    0.01</time>
   <time name="total">    2.55    3.19</time>
   <energy>
    <i name="alphaZ">      2.15216506 </i>
    <i name="ewald">   2369.42697400 </i>
    <i name="hartreedc">  -3502.90374524 </i>
    <i name="XCdc">    139.21243886 </i>
    <i name="pawpsdc">   3406.84255598 </i>
    <i name="pawaedc">  -3413.15968771 </i>
    <i name="eentropy">     -0.00000000 </i>
    <i name="bandstr">   -509.49250703 </i>
    <i name="atom">   1406.67326350 </i>
    <i name="e_fr_energy">   -101.24854258 </i>
    <i name="e_wo_entrp">   -101.24854258 </i>
    <i name="e_0_energy">   -101.24854258 </i>
   </energy>
  </scstep>
  <structure>
   <crystal>
    <varray name="basis" >
     <v>      15.40225029       0.00000000       0.00000000 </v>
     <v>       0.00000000      15.40225029       0.00000000 </v>
     <v>       0.00000000       0.00000000      15.40225029 </v>
    </varray>
    <i name="volume">   3653.86527022 </i>
    <varray name="rec_basis" >
     <v>       0.06492558       0.00000000       0.00000000 </v>
     <v>       0.00000000       0.06492558       0.00000000 </v>
     <v>       0.00000000       0.00000000       0.06492558 </v>
    </varray>
   </crystal>
   <varray name="positions" >
    <v>       0.34246828       0.43918816       0.57384984 </v>
    <v>       0.33457715       0.53060771       0.57755953 </v>
    <v>       0.40413726       0.58534988       0.56784884 </v>
    <v>       0.42070779       0.39816271       0.55613043 </v>
    <v>       0.44998517       0.43886376       0.42693888 </v>
    <v>       0.45318978       0.52913117       0.42005215 </v>
    <v>       0.53237087       0.57574122       0.42439055 </v>
    <v>       0.28265940       0.40099026       0.57110005 </v>
    <v>       0.48174513       0.42686775       0.57780649 </v>
    <v>       0.42203079       0.32755213       0.54980122 </v>
    <v>       0.26910372       0.55812464       0.57722993 </v>
    <v>       0.47047656       0.56417129       0.58010308 </v>
    <v>       0.39530182       0.65524370       0.56068642 </v>
    <v>       0.39476180       0.40519121       0.39846564 </v>
    <v>       0.51103833       0.40291525       0.42686655 </v>
    <v>       0.39733448       0.56536913       0.39611500 </v>
    <v>       0.59764053       0.61488038       0.42806307 </v>
   </varray>
  </structure>
  <varray name="forces" >
   <v>       0.00341169      -0.00205944       0.00314411 </v>
   <v>      -0.00026338       0.00254947       0.00850651 </v>
   <v>      -0.00977048       0.00870548       0.01299979 </v>
   <v>       0.00048137       0.00059870       0.01046491 </v>
   <v>       0.00100932       0.00164774      -0.01908617 </v>
   <v>       0.00548441      -0.00580506      -0.01896905 </v>
   <v>       0.00364193      -0.00906535      -0.00038629 </v>
   <v>       0.00473360      -0.00212254      -0.00390706 </v>
   <v>       0.00403554       0.00896620      -0.01012349 </v>
   <v>       0.00783818       0.00323185      -0.01029686 </v>
   <v>      -0.00393641      -0.00354065       0.01424893 </v>
   <v>      -0.00431733       0.01263151      -0.00898923 </v>
   <v>      -0.01577445       0.00862910       0.01303315 </v>
   <v>      -0.00638878      -0.00228261      -0.00193593 </v>
   <v>      -0.00526841      -0.00946001       0.00829483 </v>
   <v>       0.00484115      -0.00014407      -0.00811837 </v>
   <v>       0.01024207      -0.01248030       0.01112021 </v>
  </varray>
  <varray name="stress" >
   <v>      -0.79522526      -0.01144613      -0.01115351 </v>
   <v>      -0.01144613      -0.80731052       0.03644790 </v>
   <v>      -0.01115351       0.03644790      -0.88114578 </v>
  </varray>
  <energy>
   <i name="e_fr_energy">   -101.47837959 </i>
   <i name="e_wo_entrp">   -101.47837959 </i>
   <i name="e_0_energy">   -101.47837959 </i>
  </energy>
  <time name="totalsc">   12.97   18.41</time>
  <eigenvalues>
   <array>
    <dimension dim="1">band</dimension>
    <dimension dim="2">kpoint</dimension>
    <dimension dim="3">spin</dimension>
    <field>eigene</field>
    <field>occ</field>
    <set>
     <set comment="spin 1">
      <set comment="kpoint 1">
       <r>  -22.0240    1.0000 </r>
       <r>  -20.4965    1.0000 </r>
       <r>  -19.4870    1.0000 </r>
       <r>  -18.1498    1.0000 </r>
       <r>  -15.9333    1.0000 </r>
       <r>  -15.5869    1.0000 </r>
       <r>  -13.1595    1.0000 </r>
       <r>  -12.6103    1.0000 </r>
       <r>  -12.4160    1.0000 </r>
       <r>  -11.1015    1.0000 </r>
       <r>  -10.9594    1.0000 </r>
       <r>  -10.1240    1.0000 </r>
       <r>   -9.6928    1.0000 </r>
       <r>   -9.3285    1.0000 </r>
       <r>   -8.8801    1.0000 </r>
       <r>   -8.7695    1.0000 </r>
       <r>   -8.0732    1.0000 </r>
       <r>   -8.0186    1.0000 </r>
       <r>   -7.6887    1.0000 </r>
       <r>   -6.5937    1.0000 </r>
       <r>   -5.6532    1.0000 </r>
       <r>   -2.6006    0.0000 </r>
       <r>   -1.3933    0.0000 </r>
       <r>   -0.6505    0.0000 </r>
       <r>   -0.1613    0.0000 </r>
       <r>   -0.0664    0.0000 </r>
       <r>    0.0728    0.0000 </r>
       <r>    0.3205    0.0000 </r>
       <r>    0.4134    0.0000 </r>
       <r>    0.4941    0.0000 </r>
      </set>
     </set>
    </set>
   </array>
  </eigenvalues>
  <separator name="orbital magnetization" >
   <v name="MAGDIPOLOUT">      0.00000000      0.00000000      0.00000000</v>
  </separator>
 </calculation>
 <structure name="finalpos" >
  <crystal>
   <varray name="basis" >
    <v>      15.40225029       0.00000000       0.00000000 </v>
    <v>       0.00000000      15.40225029       0.00000000 </v>
    <v>       0.00000000       0.00000000      15.40225029 </v>
   </varray>
   <i name="volume">   3653.86527022 </i>
   <varray name="rec_basis" >
    <v>       0.06492558       0.00000000       0.00000000 </v>
    <v>       0.00000000       0.06492558       0.00000000 </v>
    <v>       0.00000000       0.00000000       0.06492558 </v>
   </varray>
  </crystal>
  <varray name="positions" >
   <v>       0.34246828       0.43918816       0.57384984 </v>
   <v>       0.33457715       0.53060771       0.57755953 </v>
   <v>       0.40413726       0.58534988       0.56784884 </v>
   <v>       0.42070779       0.39816271       0.55613043 </v>
   <v>       0.44998517       0.43886376       0.42693888 </v>
   <v>       0.45318978       0.52913117       0.42005215 </v>
   <v>       0.53237087       0.57574122       0.42439055 </v>
   <v>       0.28265940       0.40099026       0.57110005 </v>
   <v>       0.48174513       0.42686775       0.57780649 </v>
   <v>       0.42203079       0.32755213       0.54980122 </v>
   <v>       0.26910372       0.55812464       0.57722993 </v>
   <v>       0.47047656       0.56417129       0.58010308 </v>
   <v>       0.39530182       0.65524370       0.56068642 </v>
   <v>       0.39476180       0.40519121       0.39846564 </v>
   <v>       0.51103833       0.40291525       0.42686655 </v>
   <v>       0.39733448       0.56536913       0.39611500 </v>
   <v>       0.59764053       0.61488038       0.42806307 </v>
  </varray>
 </structure>
</modeling>
