  28  28   0   0
  0.2786447E+03  0.2680760E-08  0.1724010E-08  0.1688150E-08  0.5000000E-15
  1.000000000000000E-004
  CAR 
 unknown system                          
      2.23843345    -22.86378833  301     -4.69605532      1.00000000
    -22.864  0.0000E+00  0.0000E+00
    -22.780  0.0000E+00  0.0000E+00
    -22.696  0.0000E+00  0.0000E+00
    -22.613  0.0000E+00  0.0000E+00
    -22.529  0.0000E+00  0.0000E+00
    -22.445  0.0000E+00  0.0000E+00
    -22.362  0.0000E+00  0.0000E+00
    -22.278  0.0000E+00  0.0000E+00
    -22.194  0.0000E+00  0.0000E+00
    -22.111  0.0000E+00  0.0000E+00
    -22.027  0.0000E+00  0.0000E+00
    -21.943  0.5250E-08  0.4393E-09
    -21.860  0.1286E-02  0.1076E-03
    -21.776  0.1577E+01  0.1321E+00
    -21.692  0.1767E+02  0.1611E+01
    -21.609  0.4640E+01  0.1999E+01
    -21.525  0.1494E-01  0.2000E+01
    -21.441  0.2653E-06  0.2000E+01
    -21.358  0.2123E-13  0.2000E+01
    -21.274  0.0000E+00  0.2000E+01
    -21.190  0.0000E+00  0.2000E+01
    -21.107  0.0000E+00  0.2000E+01
    -21.023  0.0000E+00  0.2000E+01
    -20.939  0.0000E+00  0.2000E+01
    -20.856  0.0000E+00  0.2000E+01
    -20.772  0.0000E+00  0.2000E+01
    -20.688  0.0000E+00  0.2000E+01
    -20.605  0.0000E+00  0.2000E+01
    -20.521  0.0000E+00  0.2000E+01
    -20.437  0.0000E+00  0.2000E+01
    -20.354  0.0000E+00  0.2000E+01
    -20.270  0.0000E+00  0.2000E+01
    -20.186  0.0000E+00  0.2000E+01
    -20.103  0.0000E+00  0.2000E+01
    -20.019  0.0000E+00  0.2000E+01
    -19.935  0.0000E+00  0.2000E+01
    -19.852  0.9326E-08  0.2000E+01
    -19.768  0.1858E-02  0.2000E+01
    -19.684  0.1873E+01  0.2157E+01
    -19.600  0.1795E+02  0.3658E+01
    -19.517  0.4071E+01  0.3999E+01
    -19.433  0.1084E-01  0.4000E+01
    -19.349  0.1569E-06  0.4000E+01
    -19.266  0.6702E-04  0.4000E+01
    -19.182  0.3550E+00  0.4030E+01
    -19.098  0.1342E+02  0.5153E+01
    -19.015  0.1000E+02  0.5990E+01
    -18.931  0.1253E+00  0.6000E+01
    -18.847  0.1003E-04  0.6000E+01
    -18.764  0.3630E-11  0.6000E+01
    -18.680  0.0000E+00  0.6000E+01
    -18.596  0.0000E+00  0.6000E+01
    -18.513  0.0000E+00  0.6000E+01
    -18.429  0.0000E+00  0.6000E+01
    -18.345  0.0000E+00  0.6000E+01
    -18.262  0.1778E-12  0.6000E+01
    -18.178  0.1225E-05  0.6000E+01
    -18.094  0.3730E-01  0.6003E+01
    -18.011  0.6607E+01  0.6556E+01
    -17.927  0.1636E+02  0.7925E+01
    -17.843  0.9012E+00  0.8000E+01
    -17.760  0.4072E-03  0.8000E+01
    -17.676  0.8917E-09  0.8000E+01
    -17.592  0.0000E+00  0.8000E+01
    -17.509  0.0000E+00  0.8000E+01
    -17.425  0.0000E+00  0.8000E+01
    -17.341  0.0000E+00  0.8000E+01
    -17.258  0.0000E+00  0.8000E+01
    -17.174  0.0000E+00  0.8000E+01
    -17.090  0.0000E+00  0.8000E+01
    -17.007  0.0000E+00  0.8000E+01
    -16.923  0.0000E+00  0.8000E+01
    -16.839  0.5632E-08  0.8000E+01
    -16.756  0.1346E-02  0.8000E+01
    -16.672  0.1611E+01  0.8135E+01
    -16.588  0.1771E+02  0.9617E+01
    -16.505  0.4568E+01  0.9999E+01
    -16.421  0.1437E-01  0.1000E+02
    -16.337  0.2490E-06  0.1000E+02
    -16.254  0.1858E-13  0.1000E+02
    -16.170  0.0000E+00  0.1000E+02
    -16.086  0.0000E+00  0.1000E+02
    -16.003  0.0000E+00  0.1000E+02
    -15.919  0.0000E+00  0.1000E+02
    -15.835  0.0000E+00  0.1000E+02
    -15.751  0.0000E+00  0.1000E+02
    -15.668  0.0000E+00  0.1000E+02
    -15.584  0.3818E-10  0.1000E+02
    -15.500  0.4995E-04  0.1000E+02
    -15.417  0.3033E+00  0.1003E+02
    -15.333  0.1289E+02  0.1110E+02
    -15.249  0.1056E+02  0.1199E+02
    -15.166  0.1494E+00  0.1200E+02
    -15.082  0.1372E-04  0.1200E+02
    -14.998  0.5727E-11  0.1200E+02
    -14.915  0.0000E+00  0.1200E+02
    -14.831  0.0000E+00  0.1200E+02
    -14.747  0.0000E+00  0.1200E+02
    -14.664  0.0000E+00  0.1200E+02
    -14.580  0.0000E+00  0.1200E+02
    -14.496  0.0000E+00  0.1200E+02
    -14.413  0.1091E-08  0.1200E+02
    -14.329  0.4647E-03  0.1200E+02
    -14.245  0.9625E+00  0.1208E+02
    -14.162  0.1654E+02  0.1346E+02
    -14.078  0.6369E+01  0.1400E+02
    -13.994  0.3395E-01  0.1400E+02
    -13.911  0.5738E+00  0.1405E+02
    -13.827  0.1500E+02  0.1530E+02
    -13.743  0.8760E+01  0.1604E+02
    -13.660  0.1463E+02  0.1726E+02
    -13.576  0.8753E+01  0.1799E+02
    -13.492  0.8302E-01  0.1800E+02
    -13.409  0.4855E-05  0.1800E+02
    -13.325  0.1274E-11  0.1800E+02
    -13.241  0.0000E+00  0.1800E+02
    -13.158  0.0000E+00  0.1800E+02
    -13.074  0.0000E+00  0.1800E+02
    -12.990  0.0000E+00  0.1800E+02
    -12.907  0.0000E+00  0.1800E+02
    -12.823  0.0000E+00  0.1800E+02
    -12.739  0.0000E+00  0.1800E+02
    -12.656  0.0000E+00  0.1800E+02
    -12.572  0.0000E+00  0.1800E+02
    -12.488  0.0000E+00  0.1800E+02
    -12.405  0.0000E+00  0.1800E+02
    -12.321  0.1011E-07  0.1800E+02
    -12.237  0.1956E-02  0.1800E+02
    -12.154  0.1919E+01  0.1816E+02
    -12.070  0.1798E+02  0.1966E+02
    -11.986  0.3994E+01  0.2000E+02
    -11.902  0.1036E-01  0.2000E+02
    -11.819  0.1455E-06  0.2000E+02
    -11.735  0.1061E-13  0.2000E+02
    -11.651  0.1327E-13  0.2000E+02
    -11.568  0.1892E-06  0.2000E+02
    -11.484  0.1216E-01  0.2000E+02
    -11.400  0.4268E+01  0.2036E+02
    -11.317  0.1786E+02  0.2185E+02
    -11.233  0.1764E+01  0.2200E+02
    -11.149  0.6013E-01  0.2200E+02
    -11.066  0.7766E+01  0.2265E+02
    -10.982  0.1542E+02  0.2395E+02
    -10.898  0.6566E+00  0.2400E+02
    -10.815  0.8730E+00  0.2407E+02
    -10.731  0.1627E+02  0.2543E+02
    -10.647  0.6723E+01  0.2600E+02
    -10.564  0.3911E-01  0.2600E+02
    -10.480  0.3380E-01  0.2600E+02
    -10.396  0.6370E+01  0.2654E+02
    -10.313  0.1654E+02  0.2792E+02
    -10.229  0.1003E+01  0.2800E+02
    -10.145  0.6839E+01  0.2858E+02
    -10.062  0.1618E+02  0.2993E+02
     -9.978  0.8455E+00  0.3000E+02
     -9.894  0.3584E-03  0.3000E+02
     -9.811  0.6450E-06  0.3000E+02
     -9.727  0.2547E-01  0.3000E+02
     -9.643  0.5724E+01  0.3048E+02
     -9.560  0.1700E+02  0.3190E+02
     -9.476  0.2285E+01  0.3209E+02
     -9.392  0.1696E+02  0.3351E+02
     -9.309  0.5786E+01  0.3400E+02
     -9.225  0.2621E-01  0.3400E+02
     -9.141  0.6757E-06  0.3400E+02
     -9.058  0.9833E-04  0.3400E+02
     -8.974  0.4348E+00  0.3404E+02
     -8.890  0.1410E+02  0.3522E+02
     -8.807  0.9845E+01  0.3604E+02
     -8.723  0.1510E+02  0.3730E+02
     -8.639  0.8254E+01  0.3799E+02
     -8.556  0.2376E+00  0.3801E+02
     -8.472  0.1093E+02  0.3893E+02
     -8.388  0.1253E+02  0.3998E+02
     -8.304  0.2721E+00  0.4000E+02
     -8.221  0.1851E-02  0.4000E+02
     -8.137  0.1851E+01  0.4016E+02
     -8.053  0.1887E+02  0.4173E+02
     -7.970  0.2058E+02  0.4346E+02
     -7.886  0.6473E+01  0.4400E+02
     -7.802  0.3521E-01  0.4400E+02
     -7.719  0.3734E+00  0.4403E+02
     -7.635  0.1620E+02  0.4539E+02
     -7.551  0.2809E+02  0.4774E+02
     -7.468  0.3156E+01  0.4800E+02
     -7.384  0.5579E+01  0.4847E+02
     -7.300  0.1731E+02  0.4992E+02
     -7.217  0.1299E+02  0.5100E+02
     -7.133  0.2030E+02  0.5270E+02
     -7.049  0.1497E+02  0.5396E+02
     -6.966  0.5319E+00  0.5400E+02
     -6.882  0.1446E-03  0.5400E+02
     -6.798  0.1860E-09  0.5400E+02
     -6.715  0.0000E+00  0.5400E+02
     -6.631  0.0000E+00  0.5400E+02
     -6.547  0.0000E+00  0.5400E+02
     -6.464  0.0000E+00  0.5400E+02
     -6.380  0.0000E+00  0.5400E+02
     -6.296  0.0000E+00  0.5400E+02
     -6.213  0.0000E+00  0.5400E+02
     -6.129  0.0000E+00  0.5400E+02
     -6.045  0.0000E+00  0.5400E+02
     -5.962  0.0000E+00  0.5400E+02
     -5.878  0.0000E+00  0.5400E+02
     -5.794  0.0000E+00  0.5400E+02
     -5.711  0.0000E+00  0.5400E+02
     -5.627  0.0000E+00  0.5400E+02
     -5.543  0.0000E+00  0.5400E+02
     -5.460  0.0000E+00  0.5400E+02
     -5.376  0.0000E+00  0.5400E+02
     -5.292  0.0000E+00  0.5400E+02
     -5.209  0.4359E-11  0.5400E+02
     -5.125  0.1137E-04  0.5400E+02
     -5.041  0.1345E+00  0.5401E+02
     -4.958  0.1022E+02  0.5487E+02
     -4.874  0.1321E+02  0.5597E+02
     -4.790  0.3335E+00  0.5600E+02
     -4.707  0.5962E-04  0.5600E+02
     -4.623  0.4962E-10  0.5600E+02
     -4.539  0.0000E+00  0.5600E+02
     -4.455  0.0000E+00  0.5600E+02
     -4.372  0.0000E+00  0.5600E+02
     -4.288  0.0000E+00  0.5600E+02
     -4.204  0.0000E+00  0.5600E+02
     -4.121  0.0000E+00  0.5600E+02
     -4.037  0.0000E+00  0.5600E+02
     -3.953  0.0000E+00  0.5600E+02
     -3.870  0.0000E+00  0.5600E+02
     -3.786  0.0000E+00  0.5600E+02
     -3.702  0.0000E+00  0.5600E+02
     -3.619  0.0000E+00  0.5600E+02
     -3.535  0.0000E+00  0.5600E+02
     -3.451  0.0000E+00  0.5600E+02
     -3.368  0.0000E+00  0.5600E+02
     -3.284  0.0000E+00  0.5600E+02
     -3.200  0.0000E+00  0.5600E+02
     -3.117  0.0000E+00  0.5600E+02
     -3.033  0.0000E+00  0.5600E+02
     -2.949  0.0000E+00  0.5600E+02
     -2.866  0.0000E+00  0.5600E+02
     -2.782  0.0000E+00  0.5600E+02
     -2.698  0.0000E+00  0.5600E+02
     -2.615  0.0000E+00  0.5600E+02
     -2.531  0.0000E+00  0.5600E+02
     -2.447  0.0000E+00  0.5600E+02
     -2.364  0.0000E+00  0.5600E+02
     -2.280  0.0000E+00  0.5600E+02
     -2.196  0.0000E+00  0.5600E+02
     -2.113  0.0000E+00  0.5600E+02
     -2.029  0.0000E+00  0.5600E+02
     -1.945  0.0000E+00  0.5600E+02
     -1.862  0.0000E+00  0.5600E+02
     -1.778  0.0000E+00  0.5600E+02
     -1.694  0.0000E+00  0.5600E+02
     -1.611  0.0000E+00  0.5600E+02
     -1.527  0.0000E+00  0.5600E+02
     -1.443  0.0000E+00  0.5600E+02
     -1.360  0.0000E+00  0.5600E+02
     -1.276  0.0000E+00  0.5600E+02
     -1.192  0.0000E+00  0.5600E+02
     -1.109  0.0000E+00  0.5600E+02
     -1.025  0.0000E+00  0.5600E+02
     -0.941  0.0000E+00  0.5600E+02
     -0.858  0.0000E+00  0.5600E+02
     -0.774  0.5669E-09  0.5600E+02
     -0.690  0.3024E-03  0.5600E+02
     -0.606  0.7762E+00  0.5606E+02
     -0.523  0.1593E+02  0.5740E+02
     -0.439  0.8421E+01  0.5810E+02
     -0.355  0.1727E+02  0.5955E+02
     -0.272  0.5498E+01  0.6001E+02
     -0.188  0.9771E+01  0.6083E+02
     -0.104  0.2008E+02  0.6251E+02
     -0.021  0.3445E+02  0.6539E+02
      0.063  0.7373E+01  0.6600E+02
      0.147  0.9764E+01  0.6682E+02
      0.230  0.3328E+02  0.6961E+02
      0.314  0.2829E+02  0.7197E+02
      0.398  0.2716E+02  0.7425E+02
      0.481  0.3519E+02  0.7719E+02
      0.565  0.2622E+02  0.7938E+02
      0.649  0.2949E+02  0.8185E+02
      0.732  0.2381E+02  0.8384E+02
      0.816  0.1951E+01  0.8401E+02
      0.900  0.8643E+01  0.8473E+02
      0.983  0.1468E+02  0.8596E+02
      1.067  0.5156E+01  0.8639E+02
      1.151  0.1767E+02  0.8787E+02
      1.234  0.1577E+01  0.8800E+02
      1.318  0.1286E-02  0.8800E+02
      1.402  0.5250E-08  0.8800E+02
      1.485  0.0000E+00  0.8800E+02
      1.569  0.0000E+00  0.8800E+02
      1.653  0.0000E+00  0.8800E+02
      1.736  0.0000E+00  0.8800E+02
      1.820  0.0000E+00  0.8800E+02
      1.904  0.0000E+00  0.8800E+02
      1.987  0.0000E+00  0.8800E+02
      2.071  0.0000E+00  0.8800E+02
      2.155  0.0000E+00  0.8800E+02
      2.238  0.0000E+00  0.8800E+02
