 running on   20 total cores
 distrk:  each k-point on   20 cores,    1 groups
 distr:  one band on    5 cores,    4 groups
 vasp.6.3.2 27Jun22 (build Dec 05 2023 10:50:29) complex                        
  
 POSCAR found type information on POSCAR N C H 
 POSCAR found :  3 types and      28 ions
 scaLAPACK will be used
 -----------------------------------------------------------------------------
|                                                                             |
|               ----> ADVICE to this user running VASP <----                  |
|                                                                             |
|     You have a (more or less) 'large supercell' and for larger cells it     |
|     might be more efficient to use real-space projection operators.         |
|     Therefore, try LREAL= Auto in the INCAR file.                           |
|     Mind: For very accurate calculation, you might also keep the            |
|     reciprocal projection scheme (i.e. LREAL=.FALSE.).                      |
|                                                                             |
 -----------------------------------------------------------------------------

 LDA part: xc-table for Pade appr. of Perdew
 POSCAR, INCAR and KPOINTS ok, starting setup
 FFT: planning ... GRIDC
 FFT: planning ... GRID_SOFT
 FFT: planning ... GRID
 WAVECAR not read
 WARNING: random wavefunctions but no delay for mixing, default for NELMDL
 entering main loop
       N       E                     dE             d eps       ncg     rms          rms(c)
DAV:   1     0.491592374538E+03    0.49159E+03   -0.11723E+04   104   0.715E+02
DAV:   2     0.135400206854E+03   -0.35619E+03   -0.33135E+03   144   0.121E+02
DAV:   3    -0.124297657944E+03   -0.25970E+03   -0.25677E+03   128   0.100E+02
DAV:   4    -0.165156833608E+03   -0.40859E+02   -0.40769E+02   112   0.603E+01
DAV:   5    -0.166405160623E+03   -0.12483E+01   -0.12470E+01   136   0.133E+01    0.194E+01
RMM:   6    -0.153646156847E+03    0.12759E+02   -0.18075E+01   120   0.138E+01    0.101E+01
RMM:   7    -0.151064829412E+03    0.25813E+01   -0.16795E+01   120   0.127E+01    0.496E+00
RMM:   8    -0.150720613394E+03    0.34422E+00   -0.31891E+00   120   0.601E+00    0.190E+00
RMM:   9    -0.150428781792E+03    0.29183E+00   -0.54959E-01   120   0.313E+00    0.620E-01
RMM:  10    -0.150455864247E+03   -0.27082E-01   -0.56922E-01   121   0.221E+00    0.828E-01
RMM:  11    -0.150437856684E+03    0.18008E-01   -0.16775E-01   120   0.172E+00    0.324E-01
RMM:  12    -0.150433964642E+03    0.38920E-02   -0.32333E-02   121   0.711E-01    0.998E-02
RMM:  13    -0.150439527790E+03   -0.55631E-02   -0.24476E-02   124   0.450E-01    0.158E-01
RMM:  14    -0.150452718356E+03   -0.13191E-01   -0.66855E-03   120   0.289E-01    0.489E-02
RMM:  15    -0.150456901781E+03   -0.41834E-02   -0.27210E-03   120   0.171E-01    0.389E-02
RMM:  16    -0.150464492342E+03   -0.75906E-02   -0.15069E-03   119   0.121E-01    0.235E-02
RMM:  17    -0.150467284505E+03   -0.27922E-02   -0.77505E-04   112   0.665E-02    0.183E-02
RMM:  18    -0.150468997727E+03   -0.17132E-02   -0.45772E-04   106   0.618E-02    0.198E-02
RMM:  19    -0.150469718315E+03   -0.72059E-03   -0.13591E-04    95   0.368E-02    0.149E-02
RMM:  20    -0.150469957600E+03   -0.23928E-03   -0.56591E-05    92   0.234E-02    0.101E-02
RMM:  21    -0.150470294503E+03   -0.33690E-03   -0.68815E-05    93   0.243E-02    0.515E-03
RMM:  22    -0.150470341280E+03   -0.46776E-04   -0.10814E-05    85   0.140E-02
   1 F= -.15077618E+03 E0= -.15077618E+03  d E =-.127807E-12
