   18   18 5000    1
  0.1875000E+03  0.1500000E-08  0.1500000E-08  0.1500000E-08  0.1000000E-15
  1.000000000000000E-004
  CAR 
 unknown system                          
     50      1     35
 
  0.0000000E+00  0.0000000E+00  0.0000000E+00  0.1000000E+01
      1        -22.829409   1.000000
      2        -22.518379   1.000000
      3        -21.747471   1.000000
      4        -19.705443   1.000000
      5        -19.536152   1.000000
      6        -16.686451   1.000000
      7        -16.437187   1.000000
      8        -13.747455   1.000000
      9        -13.605701   1.000000
     10        -13.299352   1.000000
     11        -11.796553   1.000000
     12        -11.464407   1.000000
     13        -11.098300   1.000000
     14        -10.518554   1.000000
     15        -10.265437   1.000000
     16         -9.859622   1.000000
     17         -9.129353   1.000000
     18         -8.808590   1.000000
     19         -8.544936   1.000000
     20         -8.425379   1.000000
     21         -8.285719   1.000000
     22         -8.089907   1.000000
     23         -7.893914   1.000000
     24         -7.825983   1.000000
     25         -6.608916   1.000000
     26         -1.489798   0.000000
     27         -1.096374   0.000000
     28         -0.717015   0.000000
     29         -0.588880   0.000000
     30         -0.343428   0.000000
     31         -0.326272   0.000000
     32          0.065644   0.000000
     33          0.111750   0.000000
     34          0.170777   0.000000
     35          0.435655   0.000000
