       N       E                     dE             d eps       ncg     rms          rms(c)
DAV:   1     0.454654257059E+03    0.45465E+03   -0.12712E+04    86   0.725E+02
DAV:   2     0.843016264221E+02   -0.37035E+03   -0.35735E+03   121   0.142E+02
DAV:   3    -0.102779523153E+03   -0.18708E+03   -0.18651E+03    84   0.114E+02
DAV:   4    -0.126522465292E+03   -0.23743E+02   -0.23633E+02    92   0.568E+01
DAV:   5    -0.126984045450E+03   -0.46158E+00   -0.45323E+00    92   0.907E+00    0.183E+01
RMM:   6    -0.118122323781E+03    0.88617E+01   -0.12397E+01    70   0.139E+01    0.101E+01
RMM:   7    -0.115965522711E+03    0.21568E+01   -0.97799E+00    70   0.120E+01    0.440E+00
RMM:   8    -0.115780059745E+03    0.18546E+00   -0.11811E+00    71   0.492E+00    0.244E+00
RMM:   9    -0.115700828517E+03    0.79231E-01   -0.38536E-01    71   0.253E+00    0.457E-01
RMM:  10    -0.115709867751E+03   -0.90392E-02   -0.86623E-02    79   0.114E+00    0.322E-01
RMM:  11    -0.115723371325E+03   -0.13504E-01   -0.43101E-02    70   0.799E-01    0.304E-01
RMM:  12    -0.115723452796E+03   -0.81471E-04   -0.50940E-03    70   0.344E-01    0.164E-01
RMM:  13    -0.115738425659E+03   -0.14973E-01   -0.17048E-02    70   0.437E-01    0.115E-01
RMM:  14    -0.115738791623E+03   -0.36596E-03   -0.27132E-03    70   0.207E-01    0.564E-02
RMM:  15    -0.115749319082E+03   -0.10527E-01   -0.36972E-03    70   0.201E-01    0.579E-02
RMM:  16    -0.115750317814E+03   -0.99873E-03   -0.12756E-03    77   0.962E-02    0.336E-02
RMM:  17    -0.115751013821E+03   -0.69601E-03   -0.20464E-04    68   0.516E-02    0.255E-02
RMM:  18    -0.115752952350E+03   -0.19385E-02   -0.27703E-04    70   0.578E-02    0.988E-03
RMM:  19    -0.115753501145E+03   -0.54879E-03   -0.80433E-05    60   0.298E-02    0.110E-02
RMM:  20    -0.115753847590E+03   -0.34645E-03   -0.62145E-05    59   0.255E-02    0.598E-03
RMM:  21    -0.115753877512E+03   -0.29922E-04   -0.13769E-05    47   0.123E-02    0.262E-03
RMM:  22    -0.115753972118E+03   -0.94607E-04   -0.60220E-06    45   0.829E-03    0.142E-03
RMM:  23    -0.115753994548E+03   -0.22430E-04   -0.20230E-06    36   0.518E-03    0.150E-03
RMM:  24    -0.115754010903E+03   -0.16355E-04   -0.87270E-07    32   0.395E-03    0.771E-04
RMM:  25    -0.115754015127E+03   -0.42236E-05   -0.17047E-07    23   0.311E-03
   1 F= -.11599977E+03 E0= -.11599977E+03  d E =-.116000E+03
       N       E                     dE             d eps       ncg     rms          rms(c)
DAV:   1    -0.115767105515E+03   -0.13095E-01   -0.59074E-01    89   0.424E+00    0.195E-01
RMM:   2    -0.115767617647E+03   -0.51213E-03   -0.11009E-02    70   0.549E-01    0.111E-01
RMM:   3    -0.115767656743E+03   -0.39096E-04   -0.17109E-03    70   0.231E-01    0.610E-02
RMM:   4    -0.115767708265E+03   -0.51522E-04   -0.50120E-04    71   0.118E-01    0.310E-02
RMM:   5    -0.115767728591E+03   -0.20326E-04   -0.12221E-04    68   0.545E-02    0.154E-02
RMM:   6    -0.115767735467E+03   -0.68759E-05   -0.19593E-05    47   0.234E-02
   2 F= -.11601340E+03 E0= -.11601340E+03  d E =-.136289E-01
       N       E                     dE             d eps       ncg     rms          rms(c)
DAV:   1    -0.115775892993E+03   -0.81644E-02   -0.43615E-01    76   0.364E+00    0.208E-01
RMM:   2    -0.115775966809E+03   -0.73816E-04   -0.82038E-03    70   0.484E-01    0.112E-01
RMM:   3    -0.115775937487E+03    0.29321E-04   -0.13149E-03    70   0.204E-01    0.564E-02
RMM:   4    -0.115775970572E+03   -0.33084E-04   -0.52841E-04    70   0.116E-01    0.168E-02
RMM:   5    -0.115775977338E+03   -0.67661E-05   -0.89726E-05    63   0.485E-02
   3 F= -.11602171E+03 E0= -.11602171E+03  d E =-.830378E-02
       N       E                     dE             d eps       ncg     rms          rms(c)
DAV:   1    -0.115787819447E+03   -0.11849E-01   -0.11060E+00    76   0.555E+00    0.271E-01
RMM:   2    -0.115788826394E+03   -0.10069E-02   -0.20137E-02    70   0.703E-01    0.145E-01
RMM:   3    -0.115788970320E+03   -0.14393E-03   -0.31775E-03    70   0.302E-01    0.853E-02
RMM:   4    -0.115789071043E+03   -0.10072E-03   -0.84254E-04    71   0.150E-01    0.481E-02
RMM:   5    -0.115789114863E+03   -0.43820E-04   -0.22241E-04    71   0.731E-02    0.192E-02
RMM:   6    -0.115789128405E+03   -0.13542E-04   -0.38103E-05    52   0.309E-02    0.493E-03
RMM:   7    -0.115789134197E+03   -0.57923E-05   -0.84407E-06    46   0.150E-02
   4 F= -.11603478E+03 E0= -.11603478E+03  d E =-.130745E-01
       N       E                     dE             d eps       ncg     rms          rms(c)
DAV:   1    -0.115803650720E+03   -0.14522E-01   -0.50851E+00    70   0.120E+01    0.564E-01
RMM:   2    -0.115808681953E+03   -0.50312E-02   -0.77781E-02    70   0.145E+00    0.283E-01
RMM:   3    -0.115809573885E+03   -0.89193E-03   -0.12731E-02    70   0.620E-01    0.145E-01
RMM:   4    -0.115809962460E+03   -0.38857E-03   -0.32579E-03    73   0.297E-01    0.629E-02
RMM:   5    -0.115810070332E+03   -0.10787E-03   -0.72796E-04    75   0.140E-01    0.215E-02
RMM:   6    -0.115810099185E+03   -0.28853E-04   -0.16715E-04    69   0.651E-02    0.188E-02
RMM:   7    -0.115810105665E+03   -0.64802E-05   -0.13187E-05    46   0.191E-02
   5 F= -.11605578E+03 E0= -.11605578E+03  d E =-.209935E-01
       N       E                     dE             d eps       ncg     rms          rms(c)
DAV:   1    -0.115810424060E+03   -0.32488E-03   -0.12852E-02    92   0.661E-01    0.313E-02
RMM:   2    -0.115810436313E+03   -0.12253E-04   -0.19093E-04    70   0.791E-02    0.175E-02
RMM:   3    -0.115810443753E+03   -0.74395E-05   -0.30749E-05    53   0.321E-02
   6 F= -.11605610E+03 E0= -.11605610E+03  d E =-.329535E-03
       N       E                     dE             d eps       ncg     rms          rms(c)
DAV:   1    -0.115814270444E+03   -0.38341E-02   -0.23397E-01    73   0.259E+00    0.112E-01
RMM:   2    -0.115814447593E+03   -0.17715E-03   -0.34410E-03    70   0.305E-01    0.629E-02
RMM:   3    -0.115814501225E+03   -0.53632E-04   -0.53948E-04    70   0.129E-01    0.282E-02
RMM:   4    -0.115814524624E+03   -0.23399E-04   -0.14246E-04    68   0.638E-02    0.969E-03
RMM:   5    -0.115814532272E+03   -0.76478E-05   -0.37988E-05    53   0.299E-02
   7 F= -.11606020E+03 E0= -.11606020E+03  d E =-.409102E-02
       N       E                     dE             d eps       ncg     rms          rms(c)
DAV:   1    -0.115821017649E+03   -0.64930E-02   -0.85218E-01    70   0.487E+00    0.208E-01
RMM:   2    -0.115821804650E+03   -0.78700E-03   -0.12927E-02    70   0.577E-01    0.114E-01
RMM:   3    -0.115822011388E+03   -0.20674E-03   -0.20820E-03    70   0.249E-01    0.569E-02
RMM:   4    -0.115822096764E+03   -0.85376E-04   -0.55555E-04    73   0.120E-01    0.259E-02
RMM:   5    -0.115822116244E+03   -0.19480E-04   -0.12350E-04    67   0.562E-02    0.119E-02
RMM:   6    -0.115822124533E+03   -0.82889E-05   -0.22121E-05    49   0.251E-02
   8 F= -.11606774E+03 E0= -.11606774E+03  d E =-.754624E-02
       N       E                     dE             d eps       ncg     rms          rms(c)
DAV:   1    -0.115824913541E+03   -0.27973E-02   -0.10873E-01    76   0.182E+00    0.714E-02
RMM:   2    -0.115824977693E+03   -0.64152E-04   -0.14480E-03    70   0.201E-01    0.435E-02
RMM:   3    -0.115825003645E+03   -0.25952E-04   -0.24270E-04    70   0.865E-02    0.174E-02
RMM:   4    -0.115825016700E+03   -0.13055E-04   -0.69998E-05    62   0.430E-02    0.702E-03
RMM:   5    -0.115825021195E+03   -0.44950E-05   -0.13716E-05    47   0.189E-02
   9 F= -.11607064E+03 E0= -.11607064E+03  d E =-.289386E-02
       N       E                     dE             d eps       ncg     rms          rms(c)
DAV:   1    -0.115828266468E+03   -0.32498E-02   -0.20998E-01    70   0.244E+00    0.108E-01
RMM:   2    -0.115828427824E+03   -0.16136E-03   -0.33876E-03    70   0.295E-01    0.619E-02
RMM:   3    -0.115828472244E+03   -0.44420E-04   -0.53222E-04    70   0.126E-01    0.316E-02
RMM:   4    -0.115828497072E+03   -0.24828E-04   -0.15464E-04    68   0.645E-02    0.132E-02
RMM:   5    -0.115828504527E+03   -0.74554E-05   -0.39240E-05    53   0.297E-02
  10 F= -.11607408E+03 E0= -.11607408E+03  d E =-.344630E-02
       N       E                     dE             d eps       ncg     rms          rms(c)
DAV:   1    -0.115829896967E+03   -0.13999E-02   -0.38514E-02    70   0.108E+00    0.660E-02
RMM:   2    -0.115829907633E+03   -0.10667E-04   -0.82992E-04    70   0.145E-01    0.360E-02
RMM:   3    -0.115829905643E+03    0.19904E-05   -0.13015E-04    65   0.628E-02    0.190E-02
RMM:   4    -0.115829911014E+03   -0.53714E-05   -0.56800E-05    56   0.368E-02
  11 F= -.11607551E+03 E0= -.11607551E+03  d E =-.142749E-02
       N       E                     dE             d eps       ncg     rms          rms(c)
DAV:   1    -0.115833347077E+03   -0.34414E-02   -0.21879E-01    70   0.246E+00    0.103E-01
RMM:   2    -0.115833526790E+03   -0.17971E-03   -0.32237E-03    70   0.290E-01    0.590E-02
RMM:   3    -0.115833592897E+03   -0.66107E-04   -0.51452E-04    70   0.124E-01    0.255E-02
RMM:   4    -0.115833614975E+03   -0.22078E-04   -0.13540E-04    66   0.591E-02    0.112E-02
RMM:   5    -0.115833619831E+03   -0.48568E-05   -0.27949E-05    51   0.270E-02
  12 F= -.11607920E+03 E0= -.11607920E+03  d E =-.369011E-02
       N       E                     dE             d eps       ncg     rms          rms(c)
DAV:   1    -0.115836252185E+03   -0.26372E-02   -0.13386E-01    70   0.193E+00    0.793E-02
RMM:   2    -0.115836366430E+03   -0.11424E-03   -0.19858E-03    70   0.229E-01    0.453E-02
RMM:   3    -0.115836408461E+03   -0.42031E-04   -0.32165E-04    70   0.988E-02    0.192E-02
RMM:   4    -0.115836422406E+03   -0.13945E-04   -0.84019E-05    63   0.474E-02    0.769E-03
RMM:   5    -0.115836427107E+03   -0.47015E-05   -0.18048E-05    49   0.219E-02
  13 F= -.11608200E+03 E0= -.11608200E+03  d E =-.280228E-02
       N       E                     dE             d eps       ncg     rms          rms(c)
DAV:   1    -0.115838967537E+03   -0.25451E-02   -0.13862E-01    70   0.196E+00    0.810E-02
RMM:   2    -0.115839086029E+03   -0.11849E-03   -0.20925E-03    70   0.235E-01    0.465E-02
RMM:   3    -0.115839129820E+03   -0.43791E-04   -0.33271E-04    70   0.101E-01    0.202E-02
RMM:   4    -0.115839143589E+03   -0.13770E-04   -0.84002E-05    63   0.485E-02    0.798E-03
RMM:   5    -0.115839148321E+03   -0.47315E-05   -0.21311E-05    50   0.228E-02
  14 F= -.11608472E+03 E0= -.11608472E+03  d E =-.271549E-02
       N       E                     dE             d eps       ncg     rms          rms(c)
DAV:   1    -0.115842856675E+03   -0.37131E-02   -0.35858E-01    70   0.315E+00    0.133E-01
RMM:   2    -0.115843175241E+03   -0.31857E-03   -0.54877E-03    70   0.377E-01    0.752E-02
RMM:   3    -0.115843274835E+03   -0.99595E-04   -0.86824E-04    70   0.162E-01    0.351E-02
RMM:   4    -0.115843312215E+03   -0.37380E-04   -0.23101E-04    72   0.780E-02    0.153E-02
RMM:   5    -0.115843320511E+03   -0.82959E-05   -0.51493E-05    55   0.363E-02
  15 F= -.11608887E+03 E0= -.11608887E+03  d E =-.415112E-02
       N       E                     dE             d eps       ncg     rms          rms(c)
DAV:   1    -0.115845337796E+03   -0.20256E-02   -0.95683E-02    70   0.165E+00    0.708E-02
RMM:   2    -0.115845412427E+03   -0.74630E-04   -0.15105E-03    70   0.202E-01    0.410E-02
RMM:   3    -0.115845438780E+03   -0.26354E-04   -0.23930E-04    70   0.864E-02    0.185E-02
RMM:   4    -0.115845449814E+03   -0.11034E-04   -0.64918E-05    60   0.436E-02    0.604E-03
RMM:   5    -0.115845453663E+03   -0.38483E-05   -0.16288E-05    49   0.204E-02
  16 F= -.11609101E+03 E0= -.11609101E+03  d E =-.213979E-02
       N       E                     dE             d eps       ncg     rms          rms(c)
DAV:   1    -0.115848225496E+03   -0.27757E-02   -0.20347E-01    70   0.238E+00    0.978E-02
RMM:   2    -0.115848400848E+03   -0.17535E-03   -0.30292E-03    70   0.281E-01    0.562E-02
RMM:   3    -0.115848459522E+03   -0.58674E-04   -0.48092E-04    70   0.121E-01    0.245E-02
RMM:   4    -0.115848481811E+03   -0.22289E-04   -0.12644E-04    66   0.579E-02    0.104E-02
RMM:   5    -0.115848486799E+03   -0.49884E-05   -0.26548E-05    50   0.267E-02
  17 F= -.11609403E+03 E0= -.11609403E+03  d E =-.301740E-02
       N       E                     dE             d eps       ncg     rms          rms(c)
DAV:   1    -0.115851694499E+03   -0.32127E-02   -0.28910E-01    70   0.284E+00    0.115E-01
RMM:   2    -0.115851940056E+03   -0.24556E-03   -0.42245E-03    70   0.335E-01    0.670E-02
RMM:   3    -0.115852025609E+03   -0.85553E-04   -0.67079E-04    70   0.143E-01    0.270E-02
RMM:   4    -0.115852052927E+03   -0.27318E-04   -0.16696E-04    69   0.685E-02    0.105E-02
RMM:   5    -0.115852060970E+03   -0.80436E-05   -0.46122E-05    55   0.327E-02
  18 F= -.11609759E+03 E0= -.11609759E+03  d E =-.356222E-02
       N       E                     dE             d eps       ncg     rms          rms(c)
DAV:   1    -0.115854877474E+03   -0.28245E-02   -0.23017E-01    70   0.254E+00    0.102E-01
RMM:   2    -0.115855070937E+03   -0.19346E-03   -0.33857E-03    70   0.300E-01    0.601E-02
RMM:   3    -0.115855140461E+03   -0.69524E-04   -0.53113E-04    70   0.128E-01    0.239E-02
RMM:   4    -0.115855162873E+03   -0.22412E-04   -0.13316E-04    67   0.614E-02    0.918E-03
RMM:   5    -0.115855170033E+03   -0.71603E-05   -0.34129E-05    52   0.290E-02
  19 F= -.11610068E+03 E0= -.11610068E+03  d E =-.309591E-02
       N       E                     dE             d eps       ncg     rms          rms(c)
DAV:   1    -0.115858750279E+03   -0.35874E-02   -0.45668E-01    70   0.357E+00    0.145E-01
RMM:   2    -0.115859136410E+03   -0.38613E-03   -0.67204E-03    70   0.421E-01    0.847E-02
RMM:   3    -0.115859269708E+03   -0.13330E-03   -0.10536E-03    70   0.180E-01    0.353E-02
RMM:   4    -0.115859313308E+03   -0.43600E-04   -0.26691E-04    72   0.861E-02    0.142E-02
RMM:   5    -0.115859324943E+03   -0.11635E-04   -0.73867E-05    60   0.408E-02    0.684E-03
RMM:   6    -0.115859330248E+03   -0.53050E-05   -0.10831E-05    47   0.181E-02
  20 F= -.11610482E+03 E0= -.11610482E+03  d E =-.413398E-02
       N       E                     dE             d eps       ncg     rms          rms(c)
DAV:   1    -0.115860985226E+03   -0.16603E-02   -0.76725E-02    70   0.147E+00    0.599E-02
RMM:   2    -0.115861043916E+03   -0.58691E-04   -0.11680E-03    70   0.176E-01    0.362E-02
RMM:   3    -0.115861067165E+03   -0.23248E-04   -0.17755E-04    69   0.741E-02    0.152E-02
RMM:   4    -0.115861076885E+03   -0.97202E-05   -0.46100E-05    57   0.363E-02
  21 F= -.11610657E+03 E0= -.11610657E+03  d E =-.174805E-02
       N       E                     dE             d eps       ncg     rms          rms(c)
DAV:   1    -0.115864518933E+03   -0.34518E-02   -0.48634E-01    70   0.368E+00    0.149E-01
RMM:   2    -0.115864928723E+03   -0.40979E-03   -0.71100E-03    70   0.432E-01    0.880E-02
RMM:   3    -0.115865062144E+03   -0.13342E-03   -0.10946E-03    70   0.183E-01    0.358E-02
RMM:   4    -0.115865110668E+03   -0.48524E-04   -0.27528E-04    72   0.867E-02    0.143E-02
RMM:   5    -0.115865121999E+03   -0.11331E-04   -0.74715E-05    60   0.406E-02    0.704E-03
RMM:   6    -0.115865126989E+03   -0.49900E-05   -0.96058E-06    47   0.178E-02
  22 F= -.11611058E+03 E0= -.11611058E+03  d E =-.401756E-02
       N       E                     dE             d eps       ncg     rms          rms(c)
DAV:   1    -0.115868396935E+03   -0.32749E-02   -0.43041E-01    70   0.346E+00    0.136E-01
RMM:   2    -0.115868754089E+03   -0.35715E-03   -0.61681E-03    70   0.404E-01    0.816E-02
RMM:   3    -0.115868874181E+03   -0.12009E-03   -0.93800E-04    70   0.171E-01    0.297E-02
RMM:   4    -0.115868915559E+03   -0.41378E-04   -0.22955E-04    72   0.801E-02    0.109E-02
RMM:   5    -0.115868926630E+03   -0.11071E-04   -0.63402E-05    57   0.376E-02    0.393E-03
RMM:   6    -0.115868930834E+03   -0.42042E-05   -0.86119E-06    46   0.162E-02
  23 F= -.11611437E+03 E0= -.11611437E+03  d E =-.378170E-02
       N       E                     dE             d eps       ncg     rms          rms(c)
DAV:   1    -0.115871090446E+03   -0.21638E-02   -0.17089E-01    70   0.217E+00    0.847E-02
RMM:   2    -0.115871227476E+03   -0.13703E-03   -0.25200E-03    70   0.257E-01    0.517E-02
RMM:   3    -0.115871280816E+03   -0.53340E-04   -0.37290E-04    70   0.108E-01    0.190E-02
RMM:   4    -0.115871299584E+03   -0.18768E-04   -0.92932E-05    61   0.509E-02    0.649E-03
RMM:   5    -0.115871305165E+03   -0.55803E-05   -0.22428E-05    50   0.230E-02
  24 F= -.11611673E+03 E0= -.11611673E+03  d E =-.236209E-02
       N       E                     dE             d eps       ncg     rms          rms(c)
DAV:   1    -0.115871105076E+03    0.19451E-03   -0.72960E-03    76   0.463E-01    0.251E-02
RMM:   2    -0.115871112933E+03   -0.78565E-05   -0.15615E-04    63   0.631E-02    0.145E-02
RMM:   3    -0.115871115475E+03   -0.25424E-05   -0.22435E-05    49   0.259E-02
  25 F= -.11611654E+03 E0= -.11611654E+03  d E =0.187805E-03
       N       E                     dE             d eps       ncg     rms          rms(c)
DAV:   1    -0.115871781308E+03   -0.66838E-03   -0.13557E-02    76   0.609E-01    0.239E-02
RMM:   2    -0.115871793080E+03   -0.11772E-04   -0.21045E-04    68   0.737E-02    0.144E-02
RMM:   3    -0.115871798550E+03   -0.54706E-05   -0.30289E-05    52   0.304E-02
  26 F= -.11611722E+03 E0= -.11611722E+03  d E =-.679154E-03
       N       E                     dE             d eps       ncg     rms          rms(c)
DAV:   1    -0.115875951599E+03   -0.41585E-02   -0.11059E+00    70   0.545E+00    0.208E-01
RMM:   2    -0.115877007340E+03   -0.10557E-02   -0.16443E-02    70   0.649E-01    0.127E-01
RMM:   3    -0.115877265333E+03   -0.25799E-03   -0.23943E-03    70   0.271E-01    0.473E-02
RMM:   4    -0.115877351550E+03   -0.86216E-04   -0.55034E-04    70   0.128E-01    0.160E-02
RMM:   5    -0.115877374733E+03   -0.23184E-04   -0.18981E-04    68   0.622E-02    0.538E-03
RMM:   6    -0.115877378863E+03   -0.41302E-05   -0.20369E-05    49   0.247E-02
  27 F= -.11612279E+03 E0= -.11612279E+03  d E =-.556644E-02
       N       E                     dE             d eps       ncg     rms          rms(c)
DAV:   1    -0.115876511123E+03    0.86361E-03   -0.42883E-02    70   0.109E+00    0.606E-02
RMM:   2    -0.115876539942E+03   -0.28819E-04   -0.88818E-04    70   0.147E-01    0.333E-02
RMM:   3    -0.115876545697E+03   -0.57542E-05   -0.13012E-04    61   0.622E-02    0.183E-02
RMM:   4    -0.115876554368E+03   -0.86711E-05   -0.47148E-05    55   0.342E-02
  28 F= -.11612194E+03 E0= -.11612194E+03  d E =0.840887E-03
       N       E                     dE             d eps       ncg     rms          rms(c)
DAV:   1    -0.115877559158E+03   -0.10135E-02   -0.36687E-02    70   0.100E+00    0.424E-02
RMM:   2    -0.115877590529E+03   -0.31371E-04   -0.60081E-04    70   0.123E-01    0.245E-02
RMM:   3    -0.115877600463E+03   -0.99338E-05   -0.86646E-05    59   0.513E-02
  29 F= -.11612299E+03 E0= -.11612299E+03  d E =-.104930E-02
       N       E                     dE             d eps       ncg     rms          rms(c)
DAV:   1    -0.115878244254E+03   -0.65372E-03   -0.15725E-02    76   0.653E-01    0.266E-02
RMM:   2    -0.115878258588E+03   -0.14334E-04   -0.26103E-04    69   0.819E-02    0.168E-02
RMM:   3    -0.115878264976E+03   -0.63885E-05   -0.41601E-05    54   0.352E-02
  30 F= -.11612366E+03 E0= -.11612366E+03  d E =-.663575E-03
       N       E                     dE             d eps       ncg     rms          rms(c)
DAV:   1    -0.115879002711E+03   -0.74412E-03   -0.20701E-02    70   0.748E-01    0.296E-02
RMM:   2    -0.115879019476E+03   -0.16765E-04   -0.32840E-04    70   0.920E-02    0.182E-02
RMM:   3    -0.115879027591E+03   -0.81151E-05   -0.51315E-05    56   0.392E-02
  31 F= -.11612441E+03 E0= -.11612441E+03  d E =-.755863E-03
       N       E                     dE             d eps       ncg     rms          rms(c)
DAV:   1    -0.115882245308E+03   -0.32258E-02   -0.77292E+00    70   0.144E+01    0.568E-01
RMM:   2    -0.115890477135E+03   -0.82318E-02   -0.11688E-01    70   0.173E+00    0.335E-01
RMM:   3    -0.115891797645E+03   -0.13205E-02   -0.16685E-02    70   0.715E-01    0.145E-01
RMM:   4    -0.115892317767E+03   -0.52012E-03   -0.39172E-03    70   0.339E-01    0.474E-02
RMM:   5    -0.115892479442E+03   -0.16167E-03   -0.13146E-03    81   0.163E-01    0.251E-02
RMM:   6    -0.115892509505E+03   -0.30063E-04   -0.13743E-04    64   0.649E-02    0.900E-03
RMM:   7    -0.115892529018E+03   -0.19513E-04   -0.23406E-05    49   0.269E-02    0.522E-03
RMM:   8    -0.115892556352E+03   -0.27334E-04   -0.94445E-06    46   0.151E-02    0.147E-03
RMM:   9    -0.115892565994E+03   -0.96417E-05   -0.20668E-06    42   0.723E-03
  32 F= -.11613787E+03 E0= -.11613787E+03  d E =-.134523E-01
       N       E                     dE             d eps       ncg     rms          rms(c)
DAV:   1    -0.115889611608E+03    0.29447E-02   -0.32277E-01    70   0.295E+00    0.116E-01
RMM:   2    -0.115889893280E+03   -0.28167E-03   -0.48065E-03    70   0.351E-01    0.695E-02
RMM:   3    -0.115889992112E+03   -0.98832E-04   -0.69220E-04    70   0.146E-01    0.270E-02
RMM:   4    -0.115890025387E+03   -0.33275E-04   -0.16393E-04    67   0.696E-02    0.834E-03
RMM:   5    -0.115890032790E+03   -0.74025E-05   -0.48921E-05    55   0.327E-02
  33 F= -.11613536E+03 E0= -.11613536E+03  d E =0.250234E-02
       N       E                     dE             d eps       ncg     rms          rms(c)
DAV:   1    -0.115891593888E+03   -0.15685E-02   -0.13363E-01    70   0.189E+00    0.734E-02
RMM:   2    -0.115891702697E+03   -0.10881E-03   -0.19455E-03    70   0.222E-01    0.446E-02
RMM:   3    -0.115891746502E+03   -0.43805E-04   -0.27302E-04    70   0.914E-02    0.176E-02
RMM:   4    -0.115891759178E+03   -0.12676E-04   -0.63638E-05    56   0.429E-02    0.539E-03
RMM:   5    -0.115891760962E+03   -0.17836E-05   -0.17014E-05    49   0.191E-02
  34 F= -.11613707E+03 E0= -.11613707E+03  d E =-.170869E-02
       N       E                     dE             d eps       ncg     rms          rms(c)
DAV:   1    -0.115892080742E+03   -0.32156E-03   -0.49151E-03    73   0.366E-01    0.145E-02
RMM:   2    -0.115892084673E+03   -0.39306E-05   -0.77745E-05    57   0.448E-02
  35 F= -.11613740E+03 E0= -.11613740E+03  d E =-.323772E-03
       N       E                     dE             d eps       ncg     rms          rms(c)
DAV:   1    -0.115894268678E+03   -0.21879E-02   -0.31914E-01    70   0.293E+00    0.115E-01
RMM:   2    -0.115894529644E+03   -0.26097E-03   -0.47264E-03    70   0.347E-01    0.708E-02
RMM:   3    -0.115894627801E+03   -0.98157E-04   -0.68965E-04    70   0.145E-01    0.250E-02
RMM:   4    -0.115894654430E+03   -0.26629E-04   -0.15827E-04    65   0.679E-02    0.836E-03
RMM:   5    -0.115894660788E+03   -0.63575E-05   -0.51106E-05    56   0.322E-02
  36 F= -.11613995E+03 E0= -.11613995E+03  d E =-.255393E-02
       N       E                     dE             d eps       ncg     rms          rms(c)
DAV:   1    -0.115894501280E+03    0.15315E-03   -0.44881E-03    92   0.363E-01    0.255E-02
RMM:   2    -0.115894505908E+03   -0.46273E-05   -0.12521E-04    59   0.560E-02    0.138E-02
RMM:   3    -0.115894505704E+03    0.20351E-06   -0.18367E-05    47   0.233E-02
  37 F= -.11613980E+03 E0= -.11613980E+03  d E =0.153469E-03
       N       E                     dE             d eps       ncg     rms          rms(c)
DAV:   1    -0.115894939970E+03   -0.43406E-03   -0.97466E-03    73   0.516E-01    0.213E-02
RMM:   2    -0.115894949668E+03   -0.96977E-05   -0.16542E-04    64   0.648E-02    0.128E-02
RMM:   3    -0.115894952123E+03   -0.24548E-05   -0.23633E-05    49   0.267E-02
  38 F= -.11614024E+03 E0= -.11614024E+03  d E =-.445926E-03
       N       E                     dE             d eps       ncg     rms          rms(c)
DAV:   1    -0.115895251471E+03   -0.30180E-03   -0.44652E-03    73   0.350E-01    0.147E-02
RMM:   2    -0.115895254988E+03   -0.35171E-05   -0.73047E-05    57   0.434E-02
  39 F= -.11614054E+03 E0= -.11614054E+03  d E =-.297670E-03
       N       E                     dE             d eps       ncg     rms          rms(c)
DAV:   1    -0.115895870581E+03   -0.61911E-03   -0.20126E-02    70   0.743E-01    0.316E-02
RMM:   2    -0.115895884373E+03   -0.13792E-04   -0.31374E-04    69   0.895E-02    0.197E-02
RMM:   3    -0.115895892782E+03   -0.84090E-05   -0.47238E-05    55   0.379E-02
  40 F= -.11614117E+03 E0= -.11614117E+03  d E =-.634934E-03
       N       E                     dE             d eps       ncg     rms          rms(c)
DAV:   1    -0.115896643257E+03   -0.75888E-03   -0.33114E-02    70   0.951E-01    0.382E-02
RMM:   2    -0.115896672100E+03   -0.28843E-04   -0.54043E-04    70   0.118E-01    0.239E-02
RMM:   3    -0.115896683016E+03   -0.10916E-04   -0.82200E-05    59   0.497E-02    0.971E-03
RMM:   4    -0.115896686477E+03   -0.34605E-05   -0.20506E-05    51   0.237E-02
  41 F= -.11614196E+03 E0= -.11614196E+03  d E =-.788196E-03
       N       E                     dE             d eps       ncg     rms          rms(c)
DAV:   1    -0.115900199117E+03   -0.35161E-02   -0.22025E+00    70   0.772E+00    0.301E-01
RMM:   2    -0.115902294494E+03   -0.20954E-02   -0.32415E-02    70   0.912E-01    0.182E-01
RMM:   3    -0.115902756036E+03   -0.46154E-03   -0.46757E-03    70   0.379E-01    0.689E-02
RMM:   4    -0.115902929163E+03   -0.17313E-03   -0.11210E-03    71   0.177E-01    0.232E-02
RMM:   5    -0.115902970649E+03   -0.41486E-04   -0.32679E-04    76   0.830E-02    0.105E-02
RMM:   6    -0.115902978749E+03   -0.81002E-05   -0.33024E-05    50   0.337E-02
  42 F= -.11614820E+03 E0= -.11614820E+03  d E =-.623609E-02
       N       E                     dE             d eps       ncg     rms          rms(c)
DAV:   1    -0.115903610100E+03   -0.63945E-03   -0.26892E-02    76   0.858E-01    0.331E-02
RMM:   2    -0.115903634479E+03   -0.24379E-04   -0.41103E-04    70   0.103E-01    0.204E-02
RMM:   3    -0.115903648726E+03   -0.14246E-04   -0.61517E-05    58   0.434E-02    0.762E-03
RMM:   4    -0.115903656618E+03   -0.78925E-05   -0.14097E-05    49   0.196E-02
  43 F= -.11614887E+03 E0= -.11614887E+03  d E =-.675976E-03
       N       E                     dE             d eps       ncg     rms          rms(c)
DAV:   1    -0.115903681166E+03   -0.32440E-04   -0.35542E-04    89   0.100E-01    0.808E-03
RMM:   2    -0.115903683298E+03   -0.21320E-05   -0.10404E-05    46   0.162E-02
  44 F= -.11614890E+03 E0= -.11614890E+03  d E =-.244434E-04
       N       E                     dE             d eps       ncg     rms          rms(c)
DAV:   1    -0.115903939915E+03   -0.25875E-03   -0.42624E-03    76   0.341E-01    0.135E-02
RMM:   2    -0.115903944953E+03   -0.50376E-05   -0.66600E-05    56   0.414E-02
  45 F= -.11614916E+03 E0= -.11614916E+03  d E =-.260858E-03
       N       E                     dE             d eps       ncg     rms          rms(c)
DAV:   1    -0.115904798012E+03   -0.85810E-03   -0.53156E-02    70   0.121E+00    0.493E-02
RMM:   2    -0.115904837214E+03   -0.39202E-04   -0.81348E-04    70   0.145E-01    0.305E-02
RMM:   3    -0.115904858435E+03   -0.21221E-04   -0.12036E-04    62   0.611E-02    0.105E-02
RMM:   4    -0.115904864735E+03   -0.63004E-05   -0.28143E-05    52   0.279E-02
  46 F= -.11615007E+03 E0= -.11615007E+03  d E =-.910860E-03
       N       E                     dE             d eps       ncg     rms          rms(c)
DAV:   1    -0.115906214356E+03   -0.13559E-02   -0.56946E+00    70   0.125E+01    0.496E-01
RMM:   2    -0.115912059231E+03   -0.58449E-02   -0.85285E-02    70   0.149E+00    0.295E-01
RMM:   3    -0.115913088787E+03   -0.10296E-02   -0.12286E-02    70   0.618E-01    0.118E-01
RMM:   4    -0.115913481009E+03   -0.39222E-03   -0.29345E-03    71   0.289E-01    0.401E-02
RMM:   5    -0.115913587512E+03   -0.10650E-03   -0.84003E-04    79   0.135E-01    0.190E-02
RMM:   6    -0.115913607536E+03   -0.20023E-04   -0.87132E-05    59   0.549E-02    0.662E-03
RMM:   7    -0.115913625506E+03   -0.17970E-04   -0.28231E-05    49   0.282E-02    0.528E-03
RMM:   8    -0.115913651151E+03   -0.25644E-04   -0.72483E-06    46   0.132E-02    0.292E-03
RMM:   9    -0.115913655486E+03   -0.43359E-05   -0.14325E-06    43   0.649E-03
  47 F= -.11615878E+03 E0= -.11615878E+03  d E =-.871326E-02
       N       E                     dE             d eps       ncg     rms          rms(c)
DAV:   1    -0.115912033427E+03    0.16177E-02   -0.17261E-01    73   0.217E+00    0.847E-02
RMM:   2    -0.115912184575E+03   -0.15115E-03   -0.25800E-03    70   0.258E-01    0.519E-02
RMM:   3    -0.115912242683E+03   -0.58108E-04   -0.37238E-04    70   0.108E-01    0.190E-02
RMM:   4    -0.115912262428E+03   -0.19744E-04   -0.86071E-05    59   0.505E-02    0.630E-03
RMM:   5    -0.115912267919E+03   -0.54907E-05   -0.24866E-05    51   0.235E-02
  48 F= -.11615741E+03 E0= -.11615741E+03  d E =0.137232E-02
       N       E                     dE             d eps       ncg     rms          rms(c)
DAV:   1    -0.115913131826E+03   -0.86940E-03   -0.74675E-02    76   0.143E+00    0.552E-02
RMM:   2    -0.115913191642E+03   -0.59816E-04   -0.10809E-03    70   0.167E-01    0.337E-02
RMM:   3    -0.115913218919E+03   -0.27277E-04   -0.15185E-04    67   0.689E-02    0.121E-02
RMM:   4    -0.115913225710E+03   -0.67905E-05   -0.33353E-05    53   0.314E-02
  49 F= -.11615836E+03 E0= -.11615836E+03  d E =-.947203E-03
       N       E                     dE             d eps       ncg     rms          rms(c)
DAV:   1    -0.115913540966E+03   -0.32205E-03   -0.96477E-03    73   0.517E-01    0.205E-02
RMM:   2    -0.115913548757E+03   -0.77911E-05   -0.15278E-04    67   0.629E-02    0.127E-02
RMM:   3    -0.115913552228E+03   -0.34705E-05   -0.23435E-05    51   0.266E-02
  50 F= -.11615868E+03 E0= -.11615868E+03  d E =-.324865E-03
       N       E                     dE             d eps       ncg     rms          rms(c)
DAV:   1    -0.115914338288E+03   -0.78953E-03   -0.69360E-02    70   0.138E+00    0.540E-02
RMM:   2    -0.115914394151E+03   -0.55862E-04   -0.10550E-03    70   0.166E-01    0.332E-02
RMM:   3    -0.115914418145E+03   -0.23995E-04   -0.15794E-04    67   0.699E-02    0.122E-02
RMM:   4    -0.115914424547E+03   -0.64014E-05   -0.38014E-05    54   0.326E-02
  51 F= -.11615954E+03 E0= -.11615954E+03  d E =-.859655E-03
       N       E                     dE             d eps       ncg     rms          rms(c)
DAV:   1    -0.115914720025E+03   -0.30188E-03   -0.10845E-02    76   0.557E-01    0.262E-02
RMM:   2    -0.115914728963E+03   -0.89376E-05   -0.19972E-04    68   0.721E-02    0.154E-02
RMM:   3    -0.115914731155E+03   -0.21929E-05   -0.30249E-05    53   0.303E-02
  52 F= -.11615985E+03 E0= -.11615985E+03  d E =-.307190E-03
       N       E                     dE             d eps       ncg     rms          rms(c)
DAV:   1    -0.115915200789E+03   -0.47183E-03   -0.22772E-02    70   0.793E-01    0.313E-02
RMM:   2    -0.115915219108E+03   -0.18319E-04   -0.35440E-04    70   0.962E-02    0.194E-02
RMM:   3    -0.115915227984E+03   -0.88763E-05   -0.54463E-05    58   0.408E-02
  53 F= -.11616034E+03 E0= -.11616034E+03  d E =-.491633E-03
       N       E                     dE             d eps       ncg     rms          rms(c)
DAV:   1    -0.115910249829E+03    0.49693E-02   -0.10671E+01    70   0.171E+01    0.713E-01
RMM:   2    -0.115921769007E+03   -0.11519E-01   -0.16446E-01    70   0.207E+00    0.405E-01
RMM:   3    -0.115923644788E+03   -0.18758E-02   -0.23899E-02    70   0.861E-01    0.188E-01
RMM:   4    -0.115924350180E+03   -0.70539E-03   -0.57481E-03    71   0.405E-01    0.682E-02
RMM:   5    -0.115924553628E+03   -0.20345E-03   -0.15861E-03    79   0.189E-01    0.339E-02
RMM:   6    -0.115924593212E+03   -0.39583E-04   -0.17883E-04    69   0.791E-02    0.913E-03
RMM:   7    -0.115924620169E+03   -0.26957E-04   -0.57537E-05    51   0.401E-02    0.102E-02
RMM:   8    -0.115924657262E+03   -0.37093E-04   -0.13541E-05    46   0.183E-02    0.435E-03
RMM:   9    -0.115924665992E+03   -0.87308E-05   -0.28543E-06    45   0.879E-03
  54 F= -.11616963E+03 E0= -.11616963E+03  d E =-.928589E-02
       N       E                     dE             d eps       ncg     rms          rms(c)
DAV:   1    -0.115913214132E+03    0.11443E-01   -0.43842E+00    70   0.110E+01    0.429E-01
RMM:   2    -0.115917575495E+03   -0.43614E-02   -0.65034E-02    70   0.130E+00    0.258E-01
RMM:   3    -0.115918441289E+03   -0.86579E-03   -0.94257E-03    70   0.543E-01    0.958E-02
RMM:   4    -0.115918767056E+03   -0.32577E-03   -0.22235E-03    71   0.253E-01    0.320E-02
RMM:   5    -0.115918845304E+03   -0.78248E-04   -0.63614E-04    79   0.118E-01    0.122E-02
RMM:   6    -0.115918856597E+03   -0.11293E-04   -0.65329E-05    53   0.480E-02    0.506E-03
RMM:   7    -0.115918867413E+03   -0.10816E-04   -0.21070E-05    48   0.245E-02    0.344E-03
RMM:   8    -0.115918879019E+03   -0.11606E-04   -0.53313E-06    45   0.121E-02    0.139E-03
RMM:   9    -0.115918882791E+03   -0.37720E-05   -0.14009E-06    40   0.656E-03
  55 F= -.11616395E+03 E0= -.11616395E+03  d E =0.567775E-02
       N       E                     dE             d eps       ncg     rms          rms(c)
DAV:   1    -0.115919937527E+03   -0.10585E-02   -0.19403E-01    70   0.231E+00    0.896E-02
RMM:   2    -0.115920109784E+03   -0.17226E-03   -0.28627E-03    70   0.273E-01    0.543E-02
RMM:   3    -0.115920170587E+03   -0.60804E-04   -0.41671E-04    70   0.114E-01    0.197E-02
RMM:   4    -0.115920188600E+03   -0.18013E-04   -0.97423E-05    62   0.528E-02    0.678E-03
RMM:   5    -0.115920192489E+03   -0.38888E-05   -0.23930E-05    50   0.241E-02
  56 F= -.11616524E+03 E0= -.11616524E+03  d E =-.129111E-02
       N       E                     dE             d eps       ncg     rms          rms(c)
DAV:   1    -0.115920693962E+03   -0.50536E-03   -0.38912E-02    73   0.104E+00    0.403E-02
RMM:   2    -0.115920727200E+03   -0.33238E-04   -0.59232E-04    70   0.125E-01    0.244E-02
RMM:   3    -0.115920739543E+03   -0.12343E-04   -0.90922E-05    59   0.531E-02    0.896E-03
RMM:   4    -0.115920742834E+03   -0.32906E-05   -0.21244E-05    51   0.242E-02
  57 F= -.11616578E+03 E0= -.11616578E+03  d E =-.541842E-03
       N       E                     dE             d eps       ncg     rms          rms(c)
DAV:   1    -0.115920603214E+03    0.13633E-03   -0.22196E-03    78   0.246E-01    0.957E-03
RMM:   2    -0.115920605329E+03   -0.21145E-05   -0.30112E-05    49   0.281E-02
  58 F= -.11616565E+03 E0= -.11616565E+03  d E =0.134614E-03
       N       E                     dE             d eps       ncg     rms          rms(c)
DAV:   1    -0.115920812736E+03   -0.20952E-03   -0.64793E-03    73   0.420E-01    0.150E-02
RMM:   2    -0.115920819018E+03   -0.62820E-05   -0.92298E-05    61   0.493E-02
  59 F= -.11616586E+03 E0= -.11616586E+03  d E =-.211199E-03
       N       E                     dE             d eps       ncg     rms          rms(c)
DAV:   1    -0.115921892640E+03   -0.10799E-02   -0.28494E-01    70   0.282E+00    0.113E-01
RMM:   2    -0.115922132783E+03   -0.24014E-03   -0.42589E-03    70   0.335E-01    0.686E-02
RMM:   3    -0.115922214370E+03   -0.81588E-04   -0.63737E-04    70   0.142E-01    0.245E-02
RMM:   4    -0.115922237065E+03   -0.22695E-04   -0.14958E-04    68   0.655E-02    0.907E-03
RMM:   5    -0.115922241842E+03   -0.47768E-05   -0.38580E-05    54   0.303E-02
  60 F= -.11616726E+03 E0= -.11616726E+03  d E =-.139927E-02
       N       E                     dE             d eps       ncg     rms          rms(c)
DAV:   1    -0.115921718174E+03    0.51889E-03   -0.32513E-02    70   0.952E-01    0.373E-02
RMM:   2    -0.115921745603E+03   -0.27428E-04   -0.46546E-04    70   0.110E-01    0.228E-02
RMM:   3    -0.115921758080E+03   -0.12477E-04   -0.66288E-05    59   0.455E-02    0.844E-03
RMM:   4    -0.115921762538E+03   -0.44582E-05   -0.14761E-05    48   0.202E-02
  61 F= -.11616679E+03 E0= -.11616679E+03  d E =0.467542E-03
       N       E                     dE             d eps       ncg     rms          rms(c)
DAV:   1    -0.115922127498E+03   -0.36942E-03   -0.22127E-02    70   0.784E-01    0.305E-02
RMM:   2    -0.115922146034E+03   -0.18536E-04   -0.32047E-04    70   0.920E-02    0.181E-02
RMM:   3    -0.115922153016E+03   -0.69818E-05   -0.47180E-05    56   0.385E-02
  62 F= -.11616718E+03 E0= -.11616718E+03  d E =-.383789E-03
       N       E                     dE             d eps       ncg     rms          rms(c)
DAV:   1    -0.115922907814E+03   -0.76178E-03   -0.13457E-01    70   0.194E+00    0.764E-02
RMM:   2    -0.115923025817E+03   -0.11800E-03   -0.20322E-03    70   0.232E-01    0.464E-02
RMM:   3    -0.115923066802E+03   -0.40985E-04   -0.30933E-04    70   0.986E-02    0.171E-02
RMM:   4    -0.115923077500E+03   -0.10698E-04   -0.74674E-05    59   0.461E-02    0.606E-03
RMM:   5    -0.115923079768E+03   -0.22686E-05   -0.17884E-05    49   0.210E-02
  63 F= -.11616809E+03 E0= -.11616809E+03  d E =-.914748E-03
       N       E                     dE             d eps       ncg     rms          rms(c)
DAV:   1    -0.115922988773E+03    0.88726E-04   -0.20714E-03    73   0.247E-01    0.154E-02
RMM:   2    -0.115922990005E+03   -0.12318E-05   -0.42444E-05    54   0.330E-02
  64 F= -.11616800E+03 E0= -.11616800E+03  d E =0.933563E-04
       N       E                     dE             d eps       ncg     rms          rms(c)
DAV:   1    -0.115923165214E+03   -0.17644E-03   -0.53824E-03    76   0.388E-01    0.138E-02
RMM:   2    -0.115923171573E+03   -0.63590E-05   -0.82579E-05    59   0.467E-02
  65 F= -.11616818E+03 E0= -.11616818E+03  d E =-.181270E-03
       N       E                     dE             d eps       ncg     rms          rms(c)
DAV:   1    -0.115923360659E+03   -0.19545E-03   -0.64233E-03    70   0.427E-01    0.196E-02
RMM:   2    -0.115923365027E+03   -0.43675E-05   -0.10523E-04    62   0.525E-02    0.123E-02
RMM:   3    -0.115923367847E+03   -0.28207E-05   -0.16979E-05    49   0.228E-02
  66 F= -.11616837E+03 E0= -.11616837E+03  d E =-.193180E-03
       N       E                     dE             d eps       ncg     rms          rms(c)
DAV:   1    -0.115924358929E+03   -0.99390E-03   -0.44340E-01    70   0.352E+00    0.139E-01
RMM:   2    -0.115924767360E+03   -0.40843E-03   -0.66717E-03    70   0.420E-01    0.829E-02
RMM:   3    -0.115924884398E+03   -0.11704E-03   -0.99929E-04    70   0.177E-01    0.323E-02
RMM:   4    -0.115924919322E+03   -0.34924E-04   -0.23687E-04    71   0.826E-02    0.118E-02
RMM:   5    -0.115924927192E+03   -0.78705E-05   -0.63647E-05    59   0.388E-02
  67 F= -.11616990E+03 E0= -.11616990E+03  d E =-.153178E-02
       N       E                     dE             d eps       ncg     rms          rms(c)
DAV:   1    -0.115924316643E+03    0.60268E-03   -0.54944E-02    70   0.124E+00    0.490E-02
RMM:   2    -0.115924365439E+03   -0.48795E-04   -0.82348E-04    70   0.146E-01    0.299E-02
RMM:   3    -0.115924383299E+03   -0.17861E-04   -0.11788E-04    65   0.605E-02    0.123E-02
RMM:   4    -0.115924390555E+03   -0.72561E-05   -0.27522E-05    53   0.280E-02
  68 F= -.11616938E+03 E0= -.11616938E+03  d E =0.520403E-03
       N       E                     dE             d eps       ncg     rms          rms(c)
DAV:   1    -0.115924772216E+03   -0.38892E-03   -0.30160E-02    70   0.916E-01    0.359E-02
RMM:   2    -0.115924798628E+03   -0.26412E-04   -0.44349E-04    70   0.108E-01    0.211E-02
RMM:   3    -0.115924806918E+03   -0.82908E-05   -0.65379E-05    59   0.453E-02
  69 F= -.11616979E+03 E0= -.11616979E+03  d E =-.406909E-03
       N       E                     dE             d eps       ncg     rms          rms(c)
DAV:   1    -0.115925229606E+03   -0.43098E-03   -0.45236E-02    70   0.113E+00    0.449E-02
RMM:   2    -0.115925270297E+03   -0.40691E-04   -0.70250E-04    70   0.137E-01    0.275E-02
RMM:   3    -0.115925284545E+03   -0.14247E-04   -0.11007E-04    63   0.586E-02    0.105E-02
RMM:   4    -0.115925288450E+03   -0.39048E-05   -0.26275E-05    53   0.270E-02
  70 F= -.11617027E+03 E0= -.11617027E+03  d E =-.475515E-03
       N       E                     dE             d eps       ncg     rms          rms(c)
DAV:   1    -0.115925693576E+03   -0.40903E-03   -0.40644E-02    70   0.107E+00    0.417E-02
RMM:   2    -0.115925730213E+03   -0.36637E-04   -0.62039E-04    70   0.128E-01    0.252E-02
RMM:   3    -0.115925741762E+03   -0.11549E-04   -0.94354E-05    60   0.542E-02    0.962E-03
RMM:   4    -0.115925745260E+03   -0.34985E-05   -0.21533E-05    51   0.241E-02
  71 F= -.11617071E+03 E0= -.11617071E+03  d E =-.448784E-03
       N       E                     dE             d eps       ncg     rms          rms(c)
DAV:   1    -0.115926337397E+03   -0.59564E-03   -0.11954E-01    70   0.183E+00    0.719E-02
RMM:   2    -0.115926446453E+03   -0.10906E-03   -0.18463E-03    70   0.219E-01    0.435E-02
RMM:   3    -0.115926476293E+03   -0.29840E-04   -0.27740E-04    70   0.928E-02    0.180E-02
RMM:   4    -0.115926486706E+03   -0.10412E-04   -0.68563E-05    58   0.437E-02    0.705E-03
RMM:   5    -0.115926489082E+03   -0.23766E-05   -0.14905E-05    47   0.192E-02
  72 F= -.11617144E+03 E0= -.11617144E+03  d E =-.722895E-03
       N       E                     dE             d eps       ncg     rms          rms(c)
DAV:   1    -0.115926200964E+03    0.28574E-03   -0.17926E-02    70   0.709E-01    0.293E-02
RMM:   2    -0.115926216894E+03   -0.15930E-04   -0.28624E-04    70   0.858E-02    0.180E-02
RMM:   3    -0.115926222332E+03   -0.54380E-05   -0.40203E-05    54   0.352E-02
  73 F= -.11617118E+03 E0= -.11617118E+03  d E =0.254652E-03
       N       E                     dE             d eps       ncg     rms          rms(c)
DAV:   1    -0.115926286945E+03   -0.70052E-04   -0.82728E-04    81   0.151E-01    0.647E-03
RMM:   2    -0.115926288039E+03   -0.10932E-05   -0.11352E-05    45   0.169E-02
  74 F= -.11617125E+03 E0= -.11617125E+03  d E =-.641892E-04
       N       E                     dE             d eps       ncg     rms          rms(c)
DAV:   1    -0.115925214912E+03    0.10720E-02   -0.37996E+00    70   0.103E+01    0.424E-01
RMM:   2    -0.115929066818E+03   -0.38519E-02   -0.57968E-02    70   0.124E+00    0.243E-01
RMM:   3    -0.115929846065E+03   -0.77925E-03   -0.86399E-03    70   0.521E-01    0.107E-01
RMM:   4    -0.115930127626E+03   -0.28156E-03   -0.20494E-03    71   0.243E-01    0.405E-02
RMM:   5    -0.115930195862E+03   -0.68237E-04   -0.55723E-04    79   0.114E-01    0.186E-02
RMM:   6    -0.115930207899E+03   -0.12037E-04   -0.63908E-05    54   0.475E-02    0.571E-03
RMM:   7    -0.115930217923E+03   -0.10024E-04   -0.19575E-05    48   0.237E-02    0.576E-03
RMM:   8    -0.115930232757E+03   -0.14834E-04   -0.55184E-06    45   0.122E-02    0.389E-03
RMM:   9    -0.115930234859E+03   -0.21021E-05   -0.14341E-06    43   0.676E-03
  75 F= -.11617510E+03 E0= -.11617510E+03  d E =-.385399E-02
       N       E                     dE             d eps       ncg     rms          rms(c)
DAV:   1    -0.115928662977E+03    0.15698E-02   -0.34629E-01    70   0.311E+00    0.122E-01
RMM:   2    -0.115928978754E+03   -0.31578E-03   -0.52005E-03    70   0.369E-01    0.736E-02
RMM:   3    -0.115929076140E+03   -0.97386E-04   -0.77378E-04    70   0.156E-01    0.284E-02
RMM:   4    -0.115929107404E+03   -0.31264E-04   -0.18389E-04    71   0.727E-02    0.107E-02
RMM:   5    -0.115929114112E+03   -0.67077E-05   -0.46325E-05    55   0.337E-02
  76 F= -.11617402E+03 E0= -.11617402E+03  d E =0.108202E-02
       N       E                     dE             d eps       ncg     rms          rms(c)
DAV:   1    -0.115929679858E+03   -0.57245E-03   -0.13313E-01    73   0.193E+00    0.762E-02
RMM:   2    -0.115929801781E+03   -0.12192E-03   -0.19629E-03    70   0.227E-01    0.453E-02
RMM:   3    -0.115929838487E+03   -0.36706E-04   -0.28489E-04    70   0.946E-02    0.179E-02
RMM:   4    -0.115929849605E+03   -0.11117E-04   -0.65897E-05    58   0.434E-02    0.679E-03
RMM:   5    -0.115929851260E+03   -0.16554E-05   -0.14280E-05    47   0.189E-02
  77 F= -.11617474E+03 E0= -.11617474E+03  d E =-.716902E-03
       N       E                     dE             d eps       ncg     rms          rms(c)
DAV:   1    -0.115930313104E+03   -0.46350E-03   -0.96668E-02    70   0.165E+00    0.651E-02
RMM:   2    -0.115930400714E+03   -0.87610E-04   -0.14633E-03    70   0.197E-01    0.386E-02
RMM:   3    -0.115930426509E+03   -0.25795E-04   -0.22336E-04    70   0.839E-02    0.148E-02
RMM:   4    -0.115930433784E+03   -0.72750E-05   -0.53696E-05    58   0.393E-02
  78 F= -.11617530E+03 E0= -.11617530E+03  d E =-.569680E-03
       N       E                     dE             d eps       ncg     rms          rms(c)
DAV:   1    -0.115930388324E+03    0.38185E-04   -0.12626E-03    89   0.194E-01    0.129E-02
RMM:   2    -0.115930388658E+03   -0.33411E-06   -0.28190E-05    51   0.269E-02
  79 F= -.11617526E+03 E0= -.11617526E+03  d E =0.490159E-04
       N       E                     dE             d eps       ncg     rms          rms(c)
DAV:   1    -0.115930494249E+03   -0.10592E-03   -0.35176E-03    73   0.315E-01    0.114E-02
RMM:   2    -0.115930498391E+03   -0.41425E-05   -0.55284E-05    57   0.384E-02
  80 F= -.11617537E+03 E0= -.11617537E+03  d E =-.109699E-03
       N       E                     dE             d eps       ncg     rms          rms(c)
DAV:   1    -0.115930622178E+03   -0.12793E-03   -0.49943E-03    70   0.378E-01    0.172E-02
RMM:   2    -0.115930625733E+03   -0.35552E-05   -0.82180E-05    59   0.464E-02
  81 F= -.11617549E+03 E0= -.11617549E+03  d E =-.123370E-03
       N       E                     dE             d eps       ncg     rms          rms(c)
DAV:   1    -0.115931206730E+03   -0.58455E-03   -0.26220E-01    70   0.272E+00    0.109E-01
RMM:   2    -0.115931442612E+03   -0.23588E-03   -0.39536E-03    70   0.324E-01    0.655E-02
RMM:   3    -0.115931511694E+03   -0.69082E-04   -0.59837E-04    70   0.138E-01    0.247E-02
RMM:   4    -0.115931532180E+03   -0.20486E-04   -0.14119E-04    67   0.640E-02    0.914E-03
RMM:   5    -0.115931536731E+03   -0.45517E-05   -0.34768E-05    52   0.296E-02
  82 F= -.11617638E+03 E0= -.11617638E+03  d E =-.890245E-03
       N       E                     dE             d eps       ncg     rms          rms(c)
DAV:   1    -0.115931242827E+03    0.28935E-03   -0.22754E-02    70   0.800E-01    0.312E-02
RMM:   2    -0.115931263659E+03   -0.20832E-04   -0.32370E-04    70   0.923E-02    0.188E-02
RMM:   3    -0.115931272533E+03   -0.88741E-05   -0.46168E-05    54   0.382E-02
  83 F= -.11617612E+03 E0= -.11617612E+03  d E =0.257379E-03
       N       E                     dE             d eps       ncg     rms          rms(c)
DAV:   1    -0.115931485022E+03   -0.22136E-03   -0.16782E-02    70   0.686E-01    0.268E-02
RMM:   2    -0.115931499573E+03   -0.14551E-04   -0.23764E-04    69   0.789E-02    0.154E-02
RMM:   3    -0.115931504198E+03   -0.46252E-05   -0.33676E-05    52   0.326E-02
  84 F= -.11617635E+03 E0= -.11617635E+03  d E =-.224911E-03
       N       E                     dE             d eps       ncg     rms          rms(c)
DAV:   1    -0.115931785787E+03   -0.28621E-03   -0.37500E-02    70   0.103E+00    0.413E-02
RMM:   2    -0.115931819232E+03   -0.33445E-04   -0.57779E-04    70   0.124E-01    0.250E-02
RMM:   3    -0.115931830473E+03   -0.11241E-04   -0.90133E-05    60   0.533E-02    0.973E-03
RMM:   4    -0.115931833623E+03   -0.31493E-05   -0.21158E-05    50   0.243E-02
  85 F= -.11617667E+03 E0= -.11617667E+03  d E =-.323586E-03
       N       E                     dE             d eps       ncg     rms          rms(c)
DAV:   1    -0.115932264142E+03   -0.43367E-03   -0.11315E-01    70   0.179E+00    0.703E-02
RMM:   2    -0.115932367175E+03   -0.10303E-03   -0.17186E-03    70   0.213E-01    0.421E-02
RMM:   3    -0.115932396979E+03   -0.29804E-04   -0.25985E-04    70   0.903E-02    0.169E-02
RMM:   4    -0.115932406095E+03   -0.91159E-05   -0.62092E-05    58   0.418E-02
  86 F= -.11617722E+03 E0= -.11617722E+03  d E =-.553081E-03
       N       E                     dE             d eps       ncg     rms          rms(c)
DAV:   1    -0.115932287128E+03    0.10985E-03   -0.46645E-03    73   0.363E-01    0.149E-02
RMM:   2    -0.115932291798E+03   -0.46704E-05   -0.65405E-05    55   0.419E-02
  87 F= -.11617711E+03 E0= -.11617711E+03  d E =0.109009E-03
       N       E                     dE             d eps       ncg     rms          rms(c)
DAV:   1    -0.115932489999E+03   -0.20287E-03   -0.17395E-02    70   0.698E-01    0.259E-02
RMM:   2    -0.115932507086E+03   -0.17088E-04   -0.24839E-04    69   0.817E-02    0.148E-02
RMM:   3    -0.115932511735E+03   -0.46487E-05   -0.37397E-05    53   0.342E-02
  88 F= -.11617733E+03 E0= -.11617733E+03  d E =-.214836E-03
       N       E                     dE             d eps       ncg     rms          rms(c)
DAV:   1    -0.115932592460E+03   -0.85374E-04   -0.25342E-03    70   0.269E-01    0.120E-02
RMM:   2    -0.115932594868E+03   -0.24073E-05   -0.47784E-05    54   0.353E-02
  89 F= -.11617741E+03 E0= -.11617741E+03  d E =-.776260E-04
       N       E                     dE             d eps       ncg     rms          rms(c)
DAV:   1    -0.115932836989E+03   -0.24453E-03   -0.27991E-02    70   0.894E-01    0.375E-02
RMM:   2    -0.115932859837E+03   -0.22848E-04   -0.43366E-04    70   0.107E-01    0.227E-02
RMM:   3    -0.115932868449E+03   -0.86118E-05   -0.66602E-05    59   0.458E-02
  90 F= -.11617767E+03 E0= -.11617767E+03  d E =-.267819E-03
       N       E                     dE             d eps       ncg     rms          rms(c)
DAV:   1    -0.115932836759E+03    0.23079E-04   -0.55920E-04    89   0.127E-01    0.646E-03
RMM:   2    -0.115932837352E+03   -0.59324E-06   -0.75835E-06    42   0.139E-02
  91 F= -.11617764E+03 E0= -.11617764E+03  d E =0.318058E-04
       N       E                     dE             d eps       ncg     rms          rms(c)
DAV:   1    -0.115924541130E+03    0.82956E-02   -0.93857E+00    70   0.163E+01    0.698E-01
RMM:   2    -0.115934731948E+03   -0.10191E-01   -0.14594E-01    70   0.197E+00    0.383E-01
RMM:   3    -0.115936390543E+03   -0.16586E-02   -0.21877E-02    70   0.830E-01    0.185E-01
RMM:   4    -0.115937030258E+03   -0.63972E-03   -0.51965E-03    71   0.388E-01    0.696E-02
RMM:   5    -0.115937208467E+03   -0.17821E-03   -0.13955E-03    79   0.182E-01    0.323E-02
RMM:   6    -0.115937240552E+03   -0.32085E-04   -0.16734E-04    67   0.769E-02    0.922E-03
RMM:   7    -0.115937262112E+03   -0.21559E-04   -0.53708E-05    52   0.392E-02    0.102E-02
RMM:   8    -0.115937293008E+03   -0.30896E-04   -0.12315E-05    46   0.176E-02    0.761E-03
RMM:   9    -0.115937300582E+03   -0.75744E-05   -0.29542E-06    45   0.919E-03
  92 F= -.11618194E+03 E0= -.11618194E+03  d E =-.429635E-02
       N       E                     dE             d eps       ncg     rms          rms(c)
DAV:   1    -0.115921756716E+03    0.15536E-01   -0.87059E+00    70   0.157E+01    0.616E-01
RMM:   2    -0.115930714037E+03   -0.89573E-02   -0.13048E-01    70   0.186E+00    0.367E-01
RMM:   3    -0.115932177152E+03   -0.14631E-02   -0.19361E-02    70   0.784E-01    0.144E-01
RMM:   4    -0.115932780576E+03   -0.60342E-03   -0.45718E-03    71   0.366E-01    0.489E-02
RMM:   5    -0.115932926418E+03   -0.14584E-03   -0.12517E-03    79   0.171E-01    0.205E-02
RMM:   6    -0.115932948865E+03   -0.22447E-04   -0.14314E-04    65   0.708E-02    0.717E-03
RMM:   7    -0.115932965394E+03   -0.16529E-04   -0.43439E-05    51   0.358E-02    0.664E-03
RMM:   8    -0.115932984001E+03   -0.18607E-04   -0.96147E-06    46   0.160E-02    0.168E-03
RMM:   9    -0.115932991552E+03   -0.75515E-05   -0.20905E-06    44   0.769E-03
  93 F= -.11617779E+03 E0= -.11617779E+03  d E =0.414804E-02
       N       E                     dE             d eps       ncg     rms          rms(c)
DAV:   1    -0.115933134136E+03   -0.15014E-03   -0.65864E-03    89   0.432E-01    0.174E-02
RMM:   2    -0.115933143552E+03   -0.94161E-05   -0.98702E-05    61   0.510E-02
  94 F= -.11617794E+03 E0= -.11617794E+03  d E =-.149875E-03
       N       E                     dE             d eps       ncg     rms          rms(c)
DAV:   1    -0.115933274317E+03   -0.14018E-03   -0.66401E-03    76   0.438E-01    0.202E-02
RMM:   2    -0.115933281437E+03   -0.71201E-05   -0.11179E-04    62   0.539E-02    0.127E-02
RMM:   3    -0.115933287237E+03   -0.57991E-05   -0.17851E-05    49   0.232E-02
  95 F= -.11617808E+03 E0= -.11617808E+03  d E =-.136959E-03
       N       E                     dE             d eps       ncg     rms          rms(c)
DAV:   1    -0.115932380712E+03    0.90073E-03   -0.25137E+00    70   0.845E+00    0.346E-01
RMM:   2    -0.115934886450E+03   -0.25057E-02   -0.38158E-02    70   0.101E+00    0.198E-01
RMM:   3    -0.115935427422E+03   -0.54097E-03   -0.57486E-03    70   0.426E-01    0.855E-02
RMM:   4    -0.115935620290E+03   -0.19287E-03   -0.13592E-03    71   0.199E-01    0.321E-02
RMM:   5    -0.115935664461E+03   -0.44171E-04   -0.37066E-04    78   0.935E-02    0.132E-02
RMM:   6    -0.115935671439E+03   -0.69781E-05   -0.43015E-05    52   0.392E-02
  96 F= -.11618038E+03 E0= -.11618038E+03  d E =-.230036E-02
       N       E                     dE             d eps       ncg     rms          rms(c)
DAV:   1    -0.115935419038E+03    0.24542E-03   -0.24579E-02    84   0.831E-01    0.341E-02
RMM:   2    -0.115935445941E+03   -0.26903E-04   -0.35638E-04    70   0.969E-02    0.200E-02
RMM:   3    -0.115935459267E+03   -0.13326E-04   -0.52560E-05    57   0.405E-02    0.732E-03
RMM:   4    -0.115935465808E+03   -0.65407E-05   -0.11606E-05    46   0.182E-02
  97 F= -.11618018E+03 E0= -.11618018E+03  d E =0.194143E-03
       N       E                     dE             d eps       ncg     rms          rms(c)
DAV:   1    -0.115935649487E+03   -0.19022E-03   -0.19521E-02    73   0.743E-01    0.296E-02
RMM:   2    -0.115935667371E+03   -0.17884E-04   -0.28710E-04    69   0.874E-02    0.171E-02
RMM:   3    -0.115935674267E+03   -0.68959E-05   -0.43297E-05    54   0.369E-02
  98 F= -.11618038E+03 E0= -.11618038E+03  d E =-.199392E-03
       N       E                     dE             d eps       ncg     rms          rms(c)
DAV:   1    -0.115935945795E+03   -0.27842E-03   -0.63799E-02    70   0.135E+00    0.540E-02
RMM:   2    -0.115936003579E+03   -0.57784E-04   -0.97742E-04    70   0.162E-01    0.324E-02
RMM:   3    -0.115936022229E+03   -0.18650E-04   -0.15243E-04    69   0.694E-02    0.128E-02
RMM:   4    -0.115936028286E+03   -0.60571E-05   -0.36683E-05    56   0.327E-02
  99 F= -.11618073E+03 E0= -.11618073E+03  d E =-.342315E-03
       N       E                     dE             d eps       ncg     rms          rms(c)
DAV:   1    -0.115935871539E+03    0.15069E-03   -0.11728E-02    70   0.580E-01    0.241E-02
RMM:   2    -0.115935882027E+03   -0.10488E-04   -0.17059E-04    68   0.680E-02    0.141E-02
RMM:   3    -0.115935885898E+03   -0.38716E-05   -0.25115E-05    50   0.283E-02
 100 F= -.11618059E+03 E0= -.11618059E+03  d E =0.140729E-03
       N       E                     dE             d eps       ncg     rms          rms(c)
DAV:   1    -0.115936022331E+03   -0.14030E-03   -0.10962E-02    73   0.557E-01    0.221E-02
RMM:   2    -0.115936031953E+03   -0.96223E-05   -0.15735E-04    67   0.644E-02    0.126E-02
RMM:   3    -0.115936035213E+03   -0.32598E-05   -0.22427E-05    50   0.265E-02
 101 F= -.11618073E+03 E0= -.11618073E+03  d E =-.143865E-03
       N       E                     dE             d eps       ncg     rms          rms(c)
DAV:   1    -0.115936395474E+03   -0.36352E-03   -0.26666E-01    70   0.276E+00    0.110E-01
RMM:   2    -0.115936636857E+03   -0.24138E-03   -0.40077E-03    70   0.328E-01    0.652E-02
RMM:   3    -0.115936708229E+03   -0.71372E-04   -0.61052E-04    70   0.139E-01    0.256E-02
RMM:   4    -0.115936728471E+03   -0.20242E-04   -0.14393E-04    70   0.648E-02    0.939E-03
RMM:   5    -0.115936732717E+03   -0.42464E-05   -0.35435E-05    52   0.305E-02
 102 F= -.11618140E+03 E0= -.11618140E+03  d E =-.671227E-03
       N       E                     dE             d eps       ncg     rms          rms(c)
DAV:   1    -0.115935795164E+03    0.93331E-03   -0.22747E-01    70   0.255E+00    0.998E-02
RMM:   2    -0.115936003103E+03   -0.20794E-03   -0.33228E-03    70   0.298E-01    0.596E-02
RMM:   3    -0.115936064718E+03   -0.61615E-04   -0.49115E-04    70   0.125E-01    0.221E-02
RMM:   4    -0.115936082985E+03   -0.18267E-04   -0.11246E-04    65   0.574E-02    0.812E-03
RMM:   5    -0.115936086987E+03   -0.40016E-05   -0.26734E-05    52   0.261E-02
 103 F= -.11618078E+03 E0= -.11618078E+03  d E =0.618223E-03
       N       E                     dE             d eps       ncg     rms          rms(c)
DAV:   1    -0.115936145245E+03   -0.62260E-04   -0.22921E-03    78   0.253E-01    0.120E-02
RMM:   2    -0.115936146763E+03   -0.15177E-05   -0.39675E-05    51   0.310E-02
 104 F= -.11618083E+03 E0= -.11618083E+03  d E =-.529606E-04
       N       E                     dE             d eps       ncg     rms          rms(c)
DAV:   1    -0.115936182216E+03   -0.36971E-04   -0.11626E-03    81   0.187E-01    0.111E-02
RMM:   2    -0.115936183205E+03   -0.98911E-06   -0.25964E-05    48   0.262E-02
 105 F= -.11618087E+03 E0= -.11618087E+03  d E =-.392836E-04
       N       E                     dE             d eps       ncg     rms          rms(c)
DAV:   1    -0.115936178409E+03    0.38065E-05   -0.19602E-05    73   0.245E-02    0.313E-03
RMM:   2    -0.115936178650E+03   -0.24138E-06   -0.91193E-07    33   0.582E-03
 106 F= -.11618087E+03 E0= -.11618087E+03  d E =0.433926E-05
       N       E                     dE             d eps       ncg     rms          rms(c)
DAV:   1    -0.115936268726E+03   -0.90317E-04   -0.54698E-03    70   0.400E-01    0.164E-02
RMM:   2    -0.115936273113E+03   -0.43868E-05   -0.78982E-05    64   0.471E-02
 107 F= -.11618096E+03 E0= -.11618096E+03  d E =-.913192E-04
       N       E                     dE             d eps       ncg     rms          rms(c)
DAV:   1    -0.115936355655E+03   -0.86929E-04   -0.37625E-03    73   0.338E-01    0.170E-02
RMM:   2    -0.115936357920E+03   -0.22646E-05   -0.66066E-05    59   0.430E-02
 108 F= -.11618104E+03 E0= -.11618104E+03  d E =-.796276E-04
       N       E                     dE             d eps       ncg     rms          rms(c)
DAV:   1    -0.115936568151E+03   -0.21250E-03   -0.44146E-02    70   0.114E+00    0.488E-02
RMM:   2    -0.115936599438E+03   -0.31287E-04   -0.62900E-04    70   0.135E-01    0.298E-02
RMM:   3    -0.115936611514E+03   -0.12076E-04   -0.10308E-04    70   0.583E-02    0.888E-03
RMM:   4    -0.115936614558E+03   -0.30442E-05   -0.24567E-05    50   0.269E-02
 109 F= -.11618129E+03 E0= -.11618129E+03  d E =-.247820E-03
       N       E                     dE             d eps       ncg     rms          rms(c)
DAV:   1    -0.115888253522E+03    0.48358E-01   -0.28120E+01    70   0.287E+01    0.129E+00
RMM:   2    -0.115916348584E+03   -0.28095E-01   -0.41590E-01    70   0.348E+00    0.703E-01
RMM:   3    -0.115919638769E+03   -0.32902E-02   -0.64703E-02    70   0.146E+00    0.332E-01
RMM:   4    -0.115921139736E+03   -0.15010E-02   -0.15312E-02    70   0.696E-01    0.122E-01
RMM:   5    -0.115921698700E+03   -0.55896E-03   -0.47917E-03    80   0.335E-01    0.601E-02
RMM:   6    -0.115921792860E+03   -0.94160E-04   -0.57229E-04    72   0.139E-01    0.188E-02
RMM:   7    -0.115921834415E+03   -0.41555E-04   -0.13973E-04    66   0.569E-02    0.222E-02
RMM:   8    -0.115921884956E+03   -0.50541E-04   -0.20095E-05    46   0.223E-02    0.997E-03
RMM:   9    -0.115921897953E+03   -0.12997E-04   -0.62263E-06    45   0.128E-02    0.387E-03
RMM:  10    -0.115921943528E+03   -0.45575E-04   -0.54608E-06    45   0.887E-03    0.579E-03
RMM:  11    -0.115921963054E+03   -0.19527E-04   -0.24709E-06    42   0.562E-03    0.439E-03
RMM:  12    -0.115921987941E+03   -0.24887E-04   -0.27719E-06    35   0.505E-03    0.292E-03
RMM:  13    -0.115921995275E+03   -0.73337E-05   -0.98196E-07    30   0.389E-03
 110 F= -.11616692E+03 E0= -.11616692E+03  d E =0.143646E-01
       N       E                     dE             d eps       ncg     rms          rms(c)
DAV:   1    -0.115923191067E+03   -0.12031E-02   -0.46599E-01    70   0.381E+00    0.273E-01
RMM:   2    -0.115923355766E+03   -0.16470E-03   -0.13309E-02    70   0.595E-01    0.148E-01
RMM:   3    -0.115923152842E+03    0.20292E-03   -0.20609E-03    70   0.254E-01    0.744E-02
RMM:   4    -0.115923161188E+03   -0.83458E-05   -0.11486E-03    71   0.163E-01    0.213E-02
RMM:   5    -0.115923168044E+03   -0.68568E-05   -0.15587E-04    71   0.624E-02    0.164E-02
RMM:   6    -0.115923172892E+03   -0.48472E-05   -0.63569E-05    65   0.320E-02
 111 F= -.11616804E+03 E0= -.11616804E+03  d E =-.111769E-02
       N       E                     dE             d eps       ncg     rms          rms(c)
DAV:   1    -0.115926331006E+03   -0.31630E-02   -0.11328E-01    76   0.177E+00    0.158E-01
RMM:   2    -0.115926307529E+03    0.23477E-04   -0.35268E-03    70   0.300E-01    0.795E-02
RMM:   3    -0.115926236598E+03    0.70931E-04   -0.53074E-04    70   0.127E-01    0.386E-02
RMM:   4    -0.115926240084E+03   -0.34859E-05   -0.30163E-04    69   0.817E-02    0.133E-02
RMM:   5    -0.115926242526E+03   -0.24418E-05   -0.37139E-05    55   0.321E-02
 112 F= -.11617115E+03 E0= -.11617115E+03  d E =-.310697E-02
       N       E                     dE             d eps       ncg     rms          rms(c)
DAV:   1    -0.115926828992E+03   -0.58891E-03   -0.93589E-03    73   0.554E-01    0.280E-02
RMM:   2    -0.115926832286E+03   -0.32938E-05   -0.13940E-04    68   0.646E-02    0.151E-02
RMM:   3    -0.115926835049E+03   -0.27631E-05   -0.27888E-05    51   0.284E-02
 113 F= -.11617175E+03 E0= -.11617175E+03  d E =-.601626E-03
       N       E                     dE             d eps       ncg     rms          rms(c)
DAV:   1    -0.115927665007E+03   -0.83272E-03   -0.27661E-02    70   0.952E-01    0.490E-02
RMM:   2    -0.115927675427E+03   -0.10419E-04   -0.40900E-04    70   0.112E-01    0.266E-02
RMM:   3    -0.115927683573E+03   -0.81462E-05   -0.74364E-05    62   0.483E-02
 114 F= -.11617261E+03 E0= -.11617261E+03  d E =-.854862E-03
       N       E                     dE             d eps       ncg     rms          rms(c)
DAV:   1    -0.115928423244E+03   -0.74782E-03   -0.43215E-02    70   0.116E+00    0.573E-02
RMM:   2    -0.115928451096E+03   -0.27852E-04   -0.66322E-04    70   0.138E-01    0.319E-02
RMM:   3    -0.115928465124E+03   -0.14028E-04   -0.11986E-04    69   0.602E-02    0.150E-02
RMM:   4    -0.115928470686E+03   -0.55622E-05   -0.32407E-05    52   0.296E-02
 115 F= -.11617341E+03 E0= -.11617341E+03  d E =-.806893E-03
       N       E                     dE             d eps       ncg     rms          rms(c)
DAV:   1    -0.115928931374E+03   -0.46625E-03   -0.31121E-02    70   0.980E-01    0.453E-02
RMM:   2    -0.115928956517E+03   -0.25143E-04   -0.47660E-04    70   0.117E-01    0.249E-02
RMM:   3    -0.115928965852E+03   -0.93355E-05   -0.78094E-05    61   0.495E-02
 116 F= -.11617392E+03 E0= -.11617392E+03  d E =-.505666E-03
       N       E                     dE             d eps       ncg     rms          rms(c)
DAV:   1    -0.115929179726E+03   -0.22321E-03   -0.10548E-02    70   0.556E-01    0.245E-02
RMM:   2    -0.115929190643E+03   -0.10916E-04   -0.18936E-04    69   0.716E-02    0.155E-02
RMM:   3    -0.115929194416E+03   -0.37733E-05   -0.30781E-05    52   0.305E-02
 117 F= -.11617415E+03 E0= -.11617415E+03  d E =-.233793E-03
       N       E                     dE             d eps       ncg     rms          rms(c)
DAV:   1    -0.115929480505E+03   -0.28986E-03   -0.21747E-02    70   0.802E-01    0.340E-02
RMM:   2    -0.115929501082E+03   -0.20577E-04   -0.35033E-04    70   0.995E-02    0.198E-02
RMM:   3    -0.115929507449E+03   -0.63675E-05   -0.55760E-05    58   0.423E-02
 118 F= -.11617447E+03 E0= -.11617447E+03  d E =-.315758E-03
       N       E                     dE             d eps       ncg     rms          rms(c)
DAV:   1    -0.115929757524E+03   -0.25644E-03   -0.21299E-02    70   0.782E-01    0.315E-02
RMM:   2    -0.115929778237E+03   -0.20713E-04   -0.34112E-04    70   0.967E-02    0.194E-02
RMM:   3    -0.115929785081E+03   -0.68446E-05   -0.54624E-05    58   0.414E-02
 119 F= -.11617475E+03 E0= -.11617475E+03  d E =-.280111E-03
       N       E                     dE             d eps       ncg     rms          rms(c)
DAV:   1    -0.115929951374E+03   -0.17314E-03   -0.91973E-03    70   0.514E-01    0.206E-02
RMM:   2    -0.115929960658E+03   -0.92846E-05   -0.15227E-04    68   0.647E-02    0.130E-02
RMM:   3    -0.115929964214E+03   -0.35553E-05   -0.25617E-05    51   0.281E-02
 120 F= -.11617493E+03 E0= -.11617493E+03  d E =-.178239E-03
       N       E                     dE             d eps       ncg     rms          rms(c)
DAV:   1    -0.115930296526E+03   -0.33587E-03   -0.54587E-02    70   0.125E+00    0.484E-02
RMM:   2    -0.115930347993E+03   -0.51467E-04   -0.83557E-04    70   0.151E-01    0.296E-02
RMM:   3    -0.115930362969E+03   -0.14975E-04   -0.12853E-04    66   0.641E-02    0.110E-02
RMM:   4    -0.115930367589E+03   -0.46199E-05   -0.31096E-05    53   0.297E-02
 121 F= -.11617533E+03 E0= -.11617533E+03  d E =-.401696E-03
       N       E                     dE             d eps       ncg     rms          rms(c)
DAV:   1    -0.115930560482E+03   -0.19751E-03   -0.13974E-02    70   0.632E-01    0.245E-02
RMM:   2    -0.115930573688E+03   -0.13205E-04   -0.21702E-04    69   0.764E-02    0.150E-02
RMM:   3    -0.115930578024E+03   -0.43368E-05   -0.33676E-05    52   0.324E-02
 122 F= -.11617553E+03 E0= -.11617553E+03  d E =-.206340E-03
       N       E                     dE             d eps       ncg     rms          rms(c)
DAV:   1    -0.115930843516E+03   -0.26983E-03   -0.33307E-02    70   0.974E-01    0.375E-02
RMM:   2    -0.115930874551E+03   -0.31035E-04   -0.51304E-04    70   0.118E-01    0.232E-02
RMM:   3    -0.115930884476E+03   -0.99246E-05   -0.80080E-05    59   0.504E-02
 123 F= -.11617583E+03 E0= -.11617583E+03  d E =-.299725E-03
       N       E                     dE             d eps       ncg     rms          rms(c)
DAV:   1    -0.115931290974E+03   -0.41642E-03   -0.98263E-02    70   0.167E+00    0.649E-02
RMM:   2    -0.115931382782E+03   -0.91808E-04   -0.15016E-03    70   0.202E-01    0.398E-02
RMM:   3    -0.115931410657E+03   -0.27875E-04   -0.23334E-04    70   0.862E-02    0.144E-02
RMM:   4    -0.115931419124E+03   -0.84670E-05   -0.60215E-05    61   0.402E-02
 124 F= -.11617635E+03 E0= -.11617635E+03  d E =-.519527E-03
       N       E                     dE             d eps       ncg     rms          rms(c)
DAV:   1    -0.115931494336E+03   -0.83679E-04   -0.12878E-03    92   0.197E-01    0.914E-03
RMM:   2    -0.115931495943E+03   -0.16064E-05   -0.23825E-05    48   0.254E-02
 125 F= -.11617642E+03 E0= -.11617642E+03  d E =-.711474E-04
       N       E                     dE             d eps       ncg     rms          rms(c)
DAV:   1    -0.115931545318E+03   -0.50982E-04   -0.59350E-04    76   0.135E-01    0.757E-03
RMM:   2    -0.115931546342E+03   -0.10242E-05   -0.12398E-05    46   0.185E-02
 126 F= -.11617647E+03 E0= -.11617647E+03  d E =-.481157E-04
       N       E                     dE             d eps       ncg     rms          rms(c)
DAV:   1    -0.115931618472E+03   -0.73154E-04   -0.12393E-03    76   0.192E-01    0.928E-03
RMM:   2    -0.115931619701E+03   -0.12291E-05   -0.20468E-05    46   0.233E-02
 127 F= -.11617654E+03 E0= -.11617654E+03  d E =-.690406E-04
       N       E                     dE             d eps       ncg     rms          rms(c)
DAV:   1    -0.115932126687E+03   -0.50821E-03   -0.10296E-01    70   0.174E+00    0.759E-02
RMM:   2    -0.115932209925E+03   -0.83239E-04   -0.15435E-03    70   0.205E-01    0.428E-02
RMM:   3    -0.115932240946E+03   -0.31021E-04   -0.24265E-04    70   0.875E-02    0.186E-02
RMM:   4    -0.115932250962E+03   -0.10016E-04   -0.58474E-05    58   0.410E-02    0.773E-03
RMM:   5    -0.115932253172E+03   -0.22096E-05   -0.12703E-05    46   0.187E-02
 128 F= -.11617714E+03 E0= -.11617714E+03  d E =-.594846E-03
       N       E                     dE             d eps       ncg     rms          rms(c)
DAV:   1    -0.115932408988E+03   -0.15803E-03   -0.76750E-03    70   0.475E-01    0.202E-02
RMM:   2    -0.115932415520E+03   -0.65320E-05   -0.12055E-04    67   0.578E-02    0.115E-02
RMM:   3    -0.115932418469E+03   -0.29488E-05   -0.20643E-05    50   0.252E-02
 129 F= -.11617729E+03 E0= -.11617729E+03  d E =-.158577E-03
       N       E                     dE             d eps       ncg     rms          rms(c)
DAV:   1    -0.115933014331E+03   -0.59881E-03   -0.26835E-01    70   0.280E+00    0.120E-01
RMM:   2    -0.115933243354E+03   -0.22902E-03   -0.40195E-03    70   0.330E-01    0.677E-02
RMM:   3    -0.115933320048E+03   -0.76693E-04   -0.63285E-04    70   0.141E-01    0.294E-02
RMM:   4    -0.115933344286E+03   -0.24239E-04   -0.15184E-04    71   0.664E-02    0.119E-02
RMM:   5    -0.115933349612E+03   -0.53260E-05   -0.38382E-05    53   0.320E-02
 130 F= -.11617817E+03 E0= -.11617817E+03  d E =-.871286E-03
       N       E                     dE             d eps       ncg     rms          rms(c)
DAV:   1    -0.115933471818E+03   -0.12753E-03   -0.49006E-03    76   0.376E-01    0.149E-02
RMM:   2    -0.115933476973E+03   -0.51556E-05   -0.79943E-05    62   0.470E-02
 131 F= -.11617829E+03 E0= -.11617829E+03  d E =-.122742E-03
       N       E                     dE             d eps       ncg     rms          rms(c)
DAV:   1    -0.115933552253E+03   -0.80436E-04   -0.16132E-03    89   0.219E-01    0.113E-02
RMM:   2    -0.115933553778E+03   -0.15241E-05   -0.28567E-05    48   0.277E-02
 132 F= -.11617836E+03 E0= -.11617836E+03  d E =-.752984E-04
       N       E                     dE             d eps       ncg     rms          rms(c)
DAV:   1    -0.115934118947E+03   -0.56669E-03   -0.26123E-01    70   0.274E+00    0.108E-01
RMM:   2    -0.115934346093E+03   -0.22715E-03   -0.38517E-03    70   0.323E-01    0.656E-02
RMM:   3    -0.115934414675E+03   -0.68582E-04   -0.58163E-04    70   0.137E-01    0.229E-02
RMM:   4    -0.115934434375E+03   -0.19700E-04   -0.13639E-04    69   0.634E-02    0.829E-03
RMM:   5    -0.115934439498E+03   -0.51226E-05   -0.34201E-05    52   0.297E-02
 133 F= -.11617922E+03 E0= -.11617922E+03  d E =-.855667E-03
       N       E                     dE             d eps       ncg     rms          rms(c)
DAV:   1    -0.115934799134E+03   -0.36476E-03   -0.74989E-02    70   0.147E+00    0.576E-02
RMM:   2    -0.115934865360E+03   -0.66226E-04   -0.11320E-03    70   0.175E-01    0.348E-02
RMM:   3    -0.115934886230E+03   -0.20870E-04   -0.17529E-04    70   0.749E-02    0.128E-02
RMM:   4    -0.115934893544E+03   -0.73142E-05   -0.41950E-05    57   0.353E-02
 134 F= -.11617965E+03 E0= -.11617965E+03  d E =-.434106E-03
       N       E                     dE             d eps       ncg     rms          rms(c)
DAV:   1    -0.115934685527E+03    0.20070E-03   -0.14141E-02    70   0.635E-01    0.249E-02
RMM:   2    -0.115934698811E+03   -0.13284E-04   -0.19723E-04    69   0.734E-02    0.148E-02
RMM:   3    -0.115934704836E+03   -0.60249E-05   -0.28877E-05    51   0.305E-02
 135 F= -.11617947E+03 E0= -.11617947E+03  d E =0.178888E-03
       N       E                     dE             d eps       ncg     rms          rms(c)
DAV:   1    -0.115934829092E+03   -0.13028E-03   -0.61606E-03    70   0.418E-01    0.164E-02
RMM:   2    -0.115934834626E+03   -0.55341E-05   -0.85165E-05    61   0.475E-02
 136 F= -.11617960E+03 E0= -.11617960E+03  d E =-.124775E-03
       N       E                     dE             d eps       ncg     rms          rms(c)
DAV:   1    -0.115935178992E+03   -0.34990E-03   -0.67185E-02    70   0.139E+00    0.576E-02
RMM:   2    -0.115935233295E+03   -0.54303E-04   -0.10094E-03    70   0.165E-01    0.350E-02
RMM:   3    -0.115935253199E+03   -0.19905E-04   -0.15562E-04    70   0.709E-02    0.118E-02
RMM:   4    -0.115935258718E+03   -0.55186E-05   -0.35895E-05    55   0.328E-02
 137 F= -.11618001E+03 E0= -.11618001E+03  d E =-.406262E-03
       N       E                     dE             d eps       ncg     rms          rms(c)
DAV:   1    -0.115935151745E+03    0.10145E-03   -0.42206E-03    70   0.348E-01    0.136E-02
RMM:   2    -0.115935155751E+03   -0.40065E-05   -0.56285E-05    56   0.395E-02
 138 F= -.11617991E+03 E0= -.11617991E+03  d E =0.996415E-04
       N       E                     dE             d eps       ncg     rms          rms(c)
DAV:   1    -0.115935273512E+03   -0.12177E-03   -0.59642E-03    70   0.411E-01    0.145E-02
RMM:   2    -0.115935279589E+03   -0.60770E-05   -0.81514E-05    62   0.475E-02
 139 F= -.11618003E+03 E0= -.11618003E+03  d E =-.119065E-03
       N       E                     dE             d eps       ncg     rms          rms(c)
DAV:   1    -0.115935534277E+03   -0.26076E-03   -0.32499E-02    70   0.975E-01    0.413E-02
RMM:   2    -0.115935558772E+03   -0.24496E-04   -0.49360E-04    70   0.116E-01    0.252E-02
RMM:   3    -0.115935568727E+03   -0.99554E-05   -0.77402E-05    61   0.498E-02
 140 F= -.11618030E+03 E0= -.11618030E+03  d E =-.274061E-03
       N       E                     dE             d eps       ncg     rms          rms(c)
DAV:   1    -0.115935983500E+03   -0.42473E-03   -0.14512E-01    70   0.205E+00    0.826E-02
RMM:   2    -0.115936109400E+03   -0.12590E-03   -0.21685E-03    70   0.245E-01    0.499E-02
RMM:   3    -0.115936150448E+03   -0.41048E-04   -0.33932E-04    70   0.104E-01    0.183E-02
RMM:   4    -0.115936162045E+03   -0.11597E-04   -0.81179E-05    62   0.487E-02    0.677E-03
RMM:   5    -0.115936164962E+03   -0.29178E-05   -0.19776E-05    49   0.226E-02
 141 F= -.11618087E+03 E0= -.11618087E+03  d E =-.569790E-03
       N       E                     dE             d eps       ncg     rms          rms(c)
DAV:   1    -0.115936275323E+03   -0.11328E-03   -0.58722E-03    70   0.413E-01    0.166E-02
RMM:   2    -0.115936281031E+03   -0.57083E-05   -0.93624E-05    64   0.508E-02
 142 F= -.11618098E+03 E0= -.11618098E+03  d E =-.109115E-03
       N       E                     dE             d eps       ncg     rms          rms(c)
DAV:   1    -0.115936279689E+03   -0.43659E-05   -0.43347E-05    84   0.360E-02    0.459E-03
RMM:   2    -0.115936280462E+03   -0.77350E-06   -0.17593E-06    38   0.750E-03
 143 F= -.11618098E+03 E0= -.11618098E+03  d E =-.222010E-06
       N       E                     dE             d eps       ncg     rms          rms(c)
DAV:   1    -0.115936330653E+03   -0.50964E-04   -0.11334E-03    73   0.181E-01    0.753E-03
RMM:   2    -0.115936332003E+03   -0.13500E-05   -0.16767E-05    46   0.213E-02
 144 F= -.11618103E+03 E0= -.11618103E+03  d E =-.489695E-04
       N       E                     dE             d eps       ncg     rms          rms(c)
DAV:   1    -0.115936698738E+03   -0.36809E-03   -0.11827E-01    70   0.186E+00    0.763E-02
RMM:   2    -0.115936796006E+03   -0.97267E-04   -0.17400E-03    70   0.218E-01    0.452E-02
RMM:   3    -0.115936828876E+03   -0.32870E-04   -0.26923E-04    70   0.931E-02    0.169E-02
RMM:   4    -0.115936838344E+03   -0.94683E-05   -0.63042E-05    59   0.430E-02
 145 F= -.11618151E+03 E0= -.11618151E+03  d E =-.477720E-03
       N       E                     dE             d eps       ncg     rms          rms(c)
DAV:   1    -0.115936556536E+03    0.27234E-03   -0.28471E-02    70   0.911E-01    0.371E-02
RMM:   2    -0.115936580664E+03   -0.24128E-04   -0.39306E-04    70   0.105E-01    0.216E-02
RMM:   3    -0.115936589580E+03   -0.89161E-05   -0.59280E-05    59   0.440E-02
 146 F= -.11618127E+03 E0= -.11618127E+03  d E =0.236550E-03
       N       E                     dE             d eps       ncg     rms          rms(c)
DAV:   1    -0.115936554553E+03    0.26111E-04   -0.87566E-04    78   0.158E-01    0.756E-03
RMM:   2    -0.115936556329E+03   -0.17760E-05   -0.17741E-05    47   0.213E-02
 147 F= -.11618124E+03 E0= -.11618124E+03  d E =0.309764E-04
       N       E                     dE             d eps       ncg     rms          rms(c)
DAV:   1    -0.115936616048E+03   -0.61495E-04   -0.26423E-03    73   0.278E-01    0.131E-02
RMM:   2    -0.115936618194E+03   -0.21459E-05   -0.41922E-05    53   0.338E-02
 148 F= -.11618130E+03 E0= -.11618130E+03  d E =-.622213E-04
       N       E                     dE             d eps       ncg     rms          rms(c)
DAV:   1    -0.115936403103E+03    0.21295E-03   -0.15127E-02    70   0.677E-01    0.380E-02
RMM:   2    -0.115936412554E+03   -0.94516E-05   -0.27820E-04    70   0.881E-02    0.189E-02
RMM:   3    -0.115936413974E+03   -0.14199E-05   -0.44323E-05    57   0.376E-02
 149 F= -.11618110E+03 E0= -.11618110E+03  d E =0.202608E-03
       N       E                     dE             d eps       ncg     rms          rms(c)
DAV:   1    -0.115936005181E+03    0.40737E-03   -0.65734E-02    70   0.132E+00    0.609E-02
RMM:   2    -0.115936074699E+03   -0.69519E-04   -0.12691E-03    70   0.172E-01    0.368E-02
RMM:   3    -0.115936086799E+03   -0.12100E-04   -0.19196E-04    65   0.730E-02    0.193E-02
RMM:   4    -0.115936093701E+03   -0.69013E-05   -0.56326E-05    55   0.373E-02
 150 F= -.11618081E+03 E0= -.11618081E+03  d E =0.289152E-03
       N       E                     dE             d eps       ncg     rms          rms(c)
DAV:   1    -0.115935149024E+03    0.93778E-03   -0.18845E-01    70   0.231E+00    0.104E-01
RMM:   2    -0.115935312114E+03   -0.16309E-03   -0.30108E-03    70   0.278E-01    0.569E-02
RMM:   3    -0.115935363052E+03   -0.50937E-04   -0.46240E-04    70   0.118E-01    0.274E-02
RMM:   4    -0.115935378985E+03   -0.15933E-04   -0.11447E-04    64   0.561E-02    0.107E-02
RMM:   5    -0.115935382683E+03   -0.36986E-05   -0.27043E-05    53   0.260E-02
 151 F= -.11618011E+03 E0= -.11618011E+03  d E =0.693935E-03
       N       E                     dE             d eps       ncg     rms          rms(c)
DAV:   1    -0.115935167179E+03    0.21181E-03   -0.15950E-02    73   0.669E-01    0.513E-02
RMM:   2    -0.115935166028E+03    0.11511E-05   -0.41685E-04    69   0.100E-01    0.263E-02
RMM:   3    -0.115935161611E+03    0.44171E-05   -0.64588E-05    56   0.436E-02
 152 F= -.11617992E+03 E0= -.11617992E+03  d E =0.197229E-03
       N       E                     dE             d eps       ncg     rms          rms(c)
DAV:   1    -0.115935464224E+03   -0.29820E-03   -0.21564E-02    76   0.753E-01    0.491E-02
RMM:   2    -0.115935473715E+03   -0.94916E-05   -0.51646E-04    69   0.109E-01    0.260E-02
RMM:   3    -0.115935469229E+03    0.44858E-05   -0.73789E-05    56   0.455E-02
 153 F= -.11618020E+03 E0= -.11618020E+03  d E =-.280839E-03
       N       E                     dE             d eps       ncg     rms          rms(c)
DAV:   1    -0.115935570315E+03   -0.96599E-04   -0.40541E-02    70   0.106E+00    0.446E-02
RMM:   2    -0.115935596987E+03   -0.26672E-04   -0.53284E-04    70   0.127E-01    0.249E-02
RMM:   3    -0.115935608729E+03   -0.11742E-04   -0.94669E-05    62   0.546E-02    0.119E-02
[...]
RMM:   6    -0.115937064944E+03   -0.46572E-05   -0.13562E-05    47   0.200E-02
 165 F= -.11618185E+03 E0= -.11618185E+03  d E =-.200290E-03
       N       E                     dE             d eps       ncg     rms          rms(c)
DAV:   1    -0.115937078999E+03   -0.18713E-04   -0.36740E-02    70   0.984E-01    0.387E-02
RMM:   2    -0.115937115689E+03   -0.36690E-04   -0.55995E-04    70   0.119E-01    0.222E-02
RMM:   3    -0.115937126189E+03   -0.10500E-04   -0.87493E-05    58   0.510E-02    0.100E-02
RMM:   4    -0.115937131297E+03   -0.51080E-05   -0.20258E-05    52   0.230E-02
 166 F= -.11618192E+03 E0= -.11618192E+03  d E =-.706664E-04
       N       E                     dE             d eps       ncg     rms          rms(c)
DAV:   1    -0.115937130247E+03   -0.40573E-05   -0.61271E-02    70   0.127E+00    0.500E-02
RMM:   2    -0.115937191672E+03   -0.61425E-04   -0.94340E-04    70   0.154E-01    0.288E-02
RMM:   3    -0.115937207096E+03   -0.15424E-04   -0.14520E-04    65   0.654E-02    0.137E-02
RMM:   4    -0.115937213116E+03   -0.60193E-05   -0.34904E-05    54   0.302E-02
 167 F= -.11618201E+03 E0= -.11618201E+03  d E =-.817695E-04
       N       E                     dE             d eps       ncg     rms          rms(c)
DAV:   1    -0.115937126626E+03    0.80471E-04   -0.17057E-01    70   0.213E+00    0.849E-02
RMM:   2    -0.115937291684E+03   -0.16506E-03   -0.26057E-03    70   0.257E-01    0.488E-02
RMM:   3    -0.115937333705E+03   -0.42021E-04   -0.39978E-04    70   0.109E-01    0.222E-02
RMM:   4    -0.115937347230E+03   -0.13524E-04   -0.97833E-05    60   0.513E-02    0.792E-03
RMM:   5    -0.115937351299E+03   -0.40697E-05   -0.23289E-05    52   0.235E-02
 168 F= -.11618216E+03 E0= -.11618216E+03  d E =-.148746E-03
       N       E                     dE             d eps       ncg     rms          rms(c)
DAV:   1    -0.115937386713E+03   -0.39484E-04   -0.40778E-02    70   0.103E+00    0.416E-02
RMM:   2    -0.115937428059E+03   -0.41346E-04   -0.65265E-04    70   0.128E-01    0.237E-02
RMM:   3    -0.115937438752E+03   -0.10693E-04   -0.10261E-04    59   0.549E-02    0.119E-02
RMM:   4    -0.115937443315E+03   -0.45636E-05   -0.23960E-05    53   0.257E-02
 169 F= -.11618224E+03 E0= -.11618224E+03  d E =-.883775E-04
       N       E                     dE             d eps       ncg     rms          rms(c)
DAV:   1    -0.115937489603E+03   -0.50851E-04   -0.62943E-03    70   0.415E-01    0.166E-02
RMM:   2    -0.115937496115E+03   -0.65114E-05   -0.10147E-04    59   0.505E-02    0.101E-02
RMM:   3    -0.115937498727E+03   -0.26121E-05   -0.16068E-05    49   0.214E-02
 170 F= -.11618230E+03 E0= -.11618230E+03  d E =-.558949E-04
       N       E                     dE             d eps       ncg     rms          rms(c)
DAV:   1    -0.115937580746E+03   -0.84631E-04   -0.42444E-02    70   0.107E+00    0.437E-02
RMM:   2    -0.115937621911E+03   -0.41166E-04   -0.66611E-04    70   0.130E-01    0.251E-02
RMM:   3    -0.115937634166E+03   -0.12254E-04   -0.10366E-04    63   0.557E-02    0.117E-02
RMM:   4    -0.115937638356E+03   -0.41899E-05   -0.24540E-05    53   0.257E-02
 171 F= -.11618244E+03 E0= -.11618244E+03  d E =-.135578E-03
       N       E                     dE             d eps       ncg     rms          rms(c)
DAV:   1    -0.115937700861E+03   -0.66696E-04   -0.55968E-03    70   0.394E-01    0.156E-02
RMM:   2    -0.115937706597E+03   -0.57356E-05   -0.90357E-05    59   0.478E-02
 172 F= -.11618250E+03 E0= -.11618250E+03  d E =-.658582E-04
       N       E                     dE             d eps       ncg     rms          rms(c)
DAV:   1    -0.115937768589E+03   -0.67728E-04   -0.71622E-03    70   0.449E-01    0.208E-02
RMM:   2    -0.115937774156E+03   -0.55669E-05   -0.12111E-04    62   0.557E-02    0.128E-02
RMM:   3    -0.115937776998E+03   -0.28419E-05   -0.19636E-05    50   0.242E-02
 173 F= -.11618257E+03 E0= -.11618257E+03  d E =-.702454E-04
       N       E                     dE             d eps       ncg     rms          rms(c)
DAV:   1    -0.115937824721E+03   -0.50565E-04   -0.14793E-03    70   0.205E-01    0.879E-03
RMM:   2    -0.115937826375E+03   -0.16539E-05   -0.26329E-05    50   0.261E-02
 174 F= -.11618262E+03 E0= -.11618262E+03  d E =-.456640E-04
       N       E                     dE             d eps       ncg     rms          rms(c)
DAV:   1    -0.115937953149E+03   -0.12843E-03   -0.20332E-02    70   0.760E-01    0.326E-02
RMM:   2    -0.115937969982E+03   -0.16833E-04   -0.31733E-04    69   0.909E-02    0.192E-02
RMM:   3    -0.115937976422E+03   -0.64403E-05   -0.49311E-05    56   0.389E-02
 175 F= -.11618276E+03 E0= -.11618276E+03  d E =-.144979E-03
       N       E                     dE             d eps       ncg     rms          rms(c)
DAV:   1    -0.115938081933E+03   -0.11195E-03   -0.71511E-03    70   0.454E-01    0.191E-02
RMM:   2    -0.115938088397E+03   -0.64640E-05   -0.11638E-04    65   0.560E-02    0.118E-02
RMM:   3    -0.115938091280E+03   -0.28828E-05   -0.19929E-05    50   0.244E-02
 176 F= -.11618287E+03 E0= -.11618287E+03  d E =-.108961E-03
       N       E                     dE             d eps       ncg     rms          rms(c)
DAV:   1    -0.115938194356E+03   -0.10596E-03   -0.60597E-03    70   0.418E-01    0.173E-02
RMM:   2    -0.115938199863E+03   -0.55074E-05   -0.97369E-05    62   0.511E-02
 177 F= -.11618297E+03 E0= -.11618297E+03  d E =-.101054E-03
       N       E                     dE             d eps       ncg     rms          rms(c)
DAV:   1    -0.115938419432E+03   -0.22508E-03   -0.32607E-02    70   0.976E-01    0.428E-02
RMM:   2    -0.115938442899E+03   -0.23467E-04   -0.50197E-04    70   0.116E-01    0.258E-02
RMM:   3    -0.115938454534E+03   -0.11635E-04   -0.79082E-05    61   0.499E-02    0.970E-03
RMM:   4    -0.115938457710E+03   -0.31756E-05   -0.18037E-05    48   0.223E-02
 178 F= -.11618322E+03 E0= -.11618322E+03  d E =-.243373E-03
       N       E                     dE             d eps       ncg     rms          rms(c)
DAV:   1    -0.115938550916E+03   -0.96382E-04   -0.34159E-03    70   0.315E-01    0.130E-02
RMM:   2    -0.115938554103E+03   -0.31869E-05   -0.54205E-05    57   0.380E-02
 179 F= -.11618330E+03 E0= -.11618330E+03  d E =-.882659E-04
       N       E                     dE             d eps       ncg     rms          rms(c)
DAV:   1    -0.115938668728E+03   -0.11781E-03   -0.54917E-03    70   0.404E-01    0.190E-02
RMM:   2    -0.115938672318E+03   -0.35900E-05   -0.86979E-05    62   0.489E-02
 180 F= -.11618342E+03 E0= -.11618342E+03  d E =-.112067E-03
       N       E                     dE             d eps       ncg     rms          rms(c)
DAV:   1    -0.115938972732E+03   -0.30400E-03   -0.43053E-02    70   0.112E+00    0.484E-02
RMM:   2    -0.115939003051E+03   -0.30319E-04   -0.63916E-04    70   0.132E-01    0.294E-02
RMM:   3    -0.115939018404E+03   -0.15353E-04   -0.99258E-05    63   0.563E-02    0.978E-03
RMM:   4    -0.115939022266E+03   -0.38619E-05   -0.22954E-05    51   0.252E-02
 181 F= -.11618374E+03 E0= -.11618374E+03  d E =-.323376E-03
       N       E                     dE             d eps       ncg     rms          rms(c)
DAV:   1    -0.115939130860E+03   -0.11246E-03   -0.51058E-03    70   0.379E-01    0.152E-02
RMM:   2    -0.115939135922E+03   -0.50613E-05   -0.80602E-05    58   0.460E-02
 182 F= -.11618384E+03 E0= -.11618384E+03  d E =-.104333E-03
       N       E                     dE             d eps       ncg     rms          rms(c)
DAV:   1    -0.115939159435E+03   -0.28575E-04   -0.98603E-04    73   0.162E-01    0.836E-03
RMM:   2    -0.115939160808E+03   -0.13725E-05   -0.19626E-05    47   0.215E-02
 183 F= -.11618386E+03 E0= -.11618386E+03  d E =-.213636E-04
       N       E                     dE             d eps       ncg     rms          rms(c)
DAV:   1    -0.115939186829E+03   -0.27393E-04   -0.78258E-04    73   0.145E-01    0.718E-03
RMM:   2    -0.115939188022E+03   -0.11931E-05   -0.15047E-05    47   0.189E-02
 184 F= -.11618389E+03 E0= -.11618389E+03  d E =-.249748E-04
       N       E                     dE             d eps       ncg     rms          rms(c)
DAV:   1    -0.115939219308E+03   -0.32479E-04   -0.13411E-03    73   0.186E-01    0.814E-03
RMM:   2    -0.115939220861E+03   -0.15538E-05   -0.23287E-05    48   0.235E-02
 185 F= -.11618392E+03 E0= -.11618392E+03  d E =-.287541E-04
       N       E                     dE             d eps       ncg     rms          rms(c)
DAV:   1    -0.115939320259E+03   -0.10095E-03   -0.21260E-01    70   0.233E+00    0.886E-02
RMM:   2    -0.115939535248E+03   -0.21499E-03   -0.32537E-03    70   0.282E-01    0.538E-02
RMM:   3    -0.115939588203E+03   -0.52955E-04   -0.46766E-04    70   0.118E-01    0.217E-02
RMM:   4    -0.115939603068E+03   -0.14865E-04   -0.10504E-04    59   0.547E-02    0.705E-03
RMM:   5    -0.115939607132E+03   -0.40638E-05   -0.30927E-05    53   0.258E-02
 186 F= -.11618426E+03 E0= -.11618426E+03  d E =-.341888E-03
       N       E                     dE             d eps       ncg     rms          rms(c)
DAV:   1    -0.115939552836E+03    0.50232E-04   -0.29742E-03    78   0.279E-01    0.115E-02
RMM:   2    -0.115939556377E+03   -0.35415E-05   -0.44847E-05    51   0.328E-02
 187 F= -.11618421E+03 E0= -.11618421E+03  d E =0.466409E-04
       N       E                     dE             d eps       ncg     rms          rms(c)
DAV:   1    -0.115939601869E+03   -0.49033E-04   -0.50717E-03    70   0.357E-01    0.123E-02
RMM:   2    -0.115939608123E+03   -0.62544E-05   -0.72369E-05    57   0.426E-02
 188 F= -.11618426E+03 E0= -.11618426E+03  d E =-.466843E-04
       N       E                     dE             d eps       ncg     rms          rms(c)
DAV:   1    -0.115939649719E+03   -0.47850E-04   -0.36877E-02    70   0.967E-01    0.389E-02
RMM:   2    -0.115939678937E+03   -0.29219E-04   -0.53151E-04    69   0.118E-01    0.234E-02
RMM:   3    -0.115939688264E+03   -0.93263E-05   -0.85200E-05    57   0.500E-02
 189 F= -.11618433E+03 E0= -.11618433E+03  d E =-.657920E-04
       N       E                     dE             d eps       ncg     rms          rms(c)
DAV:   1    -0.115939718291E+03   -0.39353E-04   -0.60298E-02    70   0.123E+00    0.470E-02
RMM:   2    -0.115939774281E+03   -0.55990E-04   -0.89074E-04    70   0.152E-01    0.285E-02
RMM:   3    -0.115939790314E+03   -0.16033E-04   -0.14652E-04    61   0.652E-02    0.119E-02
RMM:   4    -0.115939795378E+03   -0.50645E-05   -0.35830E-05    54   0.303E-02
 190 F= -.11618442E+03 E0= -.11618442E+03  d E =-.916135E-04
       N       E                     dE             d eps       ncg     rms          rms(c)
DAV:   1    -0.115939822780E+03   -0.32466E-04   -0.96351E-03    70   0.494E-01    0.187E-02
RMM:   2    -0.115939832086E+03   -0.93061E-05   -0.14584E-04    61   0.617E-02    0.113E-02
RMM:   3    -0.115939834811E+03   -0.27252E-05   -0.23695E-05    51   0.260E-02
 191 F= -.11618445E+03 E0= -.11618445E+03  d E =-.325539E-04
       N       E                     dE             d eps       ncg     rms          rms(c)
DAV:   1    -0.115939850604E+03   -0.18518E-04   -0.73743E-04    76   0.138E-01    0.641E-03
RMM:   2    -0.115939851790E+03   -0.11856E-05   -0.15551E-05    47   0.191E-02
 192 F= -.11618446E+03 E0= -.11618446E+03  d E =-.139320E-04
       N       E                     dE             d eps       ncg     rms          rms(c)
DAV:   1    -0.115939883254E+03   -0.32649E-04   -0.13104E-02    70   0.576E-01    0.234E-02
RMM:   2    -0.115939895316E+03   -0.12063E-04   -0.20115E-04    64   0.711E-02    0.139E-02
RMM:   3    -0.115939898894E+03   -0.35776E-05   -0.30509E-05    52   0.298E-02
 193 F= -.11618451E+03 E0= -.11618451E+03  d E =-.410229E-04
       N       E                     dE             d eps       ncg     rms          rms(c)
DAV:   1    -0.115939939967E+03   -0.44651E-04   -0.29613E-02    70   0.864E-01    0.331E-02
RMM:   2    -0.115939967452E+03   -0.27485E-04   -0.44159E-04    69   0.106E-01    0.200E-02
RMM:   3    -0.115939975415E+03   -0.79623E-05   -0.71298E-05    57   0.455E-02
 194 F= -.11618457E+03 E0= -.11618457E+03  d E =-.633035E-04
       N       E                     dE             d eps       ncg     rms          rms(c)
DAV:   1    -0.115939997375E+03   -0.29922E-04   -0.16293E-03    70   0.204E-01    0.849E-03
RMM:   2    -0.115939999550E+03   -0.21753E-05   -0.31903E-05    51   0.278E-02
 195 F= -.11618459E+03 E0= -.11618459E+03  d E =-.212981E-04
       N       E                     dE             d eps       ncg     rms          rms(c)
DAV:   1    -0.115940037927E+03   -0.40552E-04   -0.41416E-03    70   0.325E-01    0.138E-02
RMM:   2    -0.115940042058E+03   -0.41309E-05   -0.70414E-05    55   0.408E-02
 196 F= -.11618463E+03 E0= -.11618463E+03  d E =-.368148E-04
       N       E                     dE             d eps       ncg     rms          rms(c)
DAV:   1    -0.115940131707E+03   -0.93780E-04   -0.38303E-03    70   0.334E-01    0.153E-02
RMM:   2    -0.115940134695E+03   -0.29888E-05   -0.60224E-05    56   0.402E-02
 197 F= -.11618471E+03 E0= -.11618471E+03  d E =-.846905E-04
       N       E                     dE             d eps       ncg     rms          rms(c)
DAV:   1    -0.115940143473E+03   -0.11766E-04   -0.11808E-02    70   0.557E-01    0.222E-02
RMM:   2    -0.115940155428E+03   -0.11955E-04   -0.17497E-04    65   0.678E-02    0.128E-02
RMM:   3    -0.115940158918E+03   -0.34899E-05   -0.26729E-05    50   0.284E-02
 198 F= -.11618474E+03 E0= -.11618474E+03  d E =-.271739E-04
       N       E                     dE             d eps       ncg     rms          rms(c)
DAV:   1    -0.115940252413E+03   -0.96985E-04   -0.18627E-02    70   0.697E-01    0.285E-02
RMM:   2    -0.115940271336E+03   -0.18923E-04   -0.28771E-04    68   0.833E-02    0.162E-02
RMM:   3    -0.115940275825E+03   -0.44891E-05   -0.39754E-05    53   0.343E-02
 199 F= -.11618484E+03 E0= -.11618484E+03  d E =-.105013E-03
       N       E                     dE             d eps       ncg     rms          rms(c)
DAV:   1    -0.115940340523E+03   -0.69187E-04   -0.19097E-03    73   0.238E-01    0.116E-02
RMM:   2    -0.115940341986E+03   -0.14624E-05   -0.34369E-05    49   0.305E-02
 200 F= -.11618490E+03 E0= -.11618490E+03  d E =-.589785E-04
       N       E                     dE             d eps       ncg     rms          rms(c)
DAV:   1    -0.115940400208E+03   -0.59684E-04   -0.17801E-03    76   0.227E-01    0.112E-02
RMM:   2    -0.115940401591E+03   -0.13834E-05   -0.30519E-05    48   0.281E-02
 201 F= -.11618496E+03 E0= -.11618496E+03  d E =-.552586E-04
       N       E                     dE             d eps       ncg     rms          rms(c)
DAV:   1    -0.115940477375E+03   -0.77168E-04   -0.30053E-03    70   0.293E-01    0.132E-02
RMM:   2    -0.115940479640E+03   -0.22651E-05   -0.47951E-05    53   0.352E-02
 202 F= -.11618503E+03 E0= -.11618503E+03  d E =-.697819E-04
       N       E                     dE             d eps       ncg     rms          rms(c)
DAV:   1    -0.115940641919E+03   -0.16454E-03   -0.15165E-02    70   0.659E-01    0.278E-02
RMM:   2    -0.115940653652E+03   -0.11732E-04   -0.22854E-04    68   0.779E-02    0.173E-02
RMM:   3    -0.115940658696E+03   -0.50445E-05   -0.34607E-05    53   0.330E-02
 203 F= -.11618519E+03 E0= -.11618519E+03  d E =-.162212E-03
       N       E                     dE             d eps       ncg     rms          rms(c)
DAV:   1    -0.115940806763E+03   -0.15311E-03   -0.14486E-02    70   0.639E-01    0.255E-02
RMM:   2    -0.115940820183E+03   -0.13420E-04   -0.22786E-04    68   0.778E-02    0.160E-02
RMM:   3    -0.115940824807E+03   -0.46246E-05   -0.35314E-05    53   0.330E-02
 204 F= -.11618534E+03 E0= -.11618534E+03  d E =-.149434E-03
       N       E                     dE             d eps       ncg     rms          rms(c)
DAV:   1    -0.115940942816E+03   -0.12263E-03   -0.82918E-03    70   0.487E-01    0.199E-02
RMM:   2    -0.115940950271E+03   -0.74549E-05   -0.13250E-04    66   0.599E-02    0.125E-02
RMM:   3    -0.115940953242E+03   -0.29708E-05   -0.21618E-05    49   0.256E-02
 205 F= -.11618546E+03 E0= -.11618546E+03  d E =-.116768E-03
       N       E                     dE             d eps       ncg     rms          rms(c)
DAV:   1    -0.115941052722E+03   -0.10245E-03   -0.55103E-03    70   0.397E-01    0.164E-02
RMM:   2    -0.115941057470E+03   -0.47481E-05   -0.88074E-05    61   0.488E-02
 206 F= -.11618555E+03 E0= -.11618555E+03  d E =-.918786E-04
       N       E                     dE             d eps       ncg     rms          rms(c)
DAV:   1    -0.115941219632E+03   -0.16691E-03   -0.16688E-02    70   0.694E-01    0.304E-02
RMM:   2    -0.115941231606E+03   -0.11974E-04   -0.25671E-04    68   0.829E-02    0.190E-02
RMM:   3    -0.115941237570E+03   -0.59645E-05   -0.39463E-05    55   0.353E-02
 207 F= -.11618571E+03 E0= -.11618571E+03  d E =-.163213E-03
       N       E                     dE             d eps       ncg     rms          rms(c)
DAV:   1    -0.115941356408E+03   -0.12480E-03   -0.83949E-03    70   0.492E-01    0.202E-02
RMM:   2    -0.115941363678E+03   -0.72704E-05   -0.13204E-04    66   0.602E-02    0.126E-02
RMM:   3    -0.115941366916E+03   -0.32374E-05   -0.21441E-05    50   0.256E-02
 208 F= -.11618583E+03 E0= -.11618583E+03  d E =-.115211E-03
       N       E                     dE             d eps       ncg     rms          rms(c)
DAV:   1    -0.115941453430E+03   -0.89752E-04   -0.44649E-03    76   0.360E-01    0.149E-02
RMM:   2    -0.115941457253E+03   -0.38229E-05   -0.69949E-05    59   0.441E-02
 209 F= -.11618591E+03 E0= -.11618591E+03  d E =-.815911E-04
       N       E                     dE             d eps       ncg     rms          rms(c)
DAV:   1    -0.115941553841E+03   -0.10041E-03   -0.52591E-03    70   0.395E-01    0.184E-02
RMM:   2    -0.115941557103E+03   -0.32617E-05   -0.82532E-05    61   0.475E-02
 210 F= -.11618600E+03 E0= -.11618600E+03  d E =-.894426E-04
       N       E                     dE             d eps       ncg     rms          rms(c)
DAV:   1    -0.115941603990E+03   -0.50149E-04   -0.12481E-03    76   0.195E-01    0.104E-02
RMM:   2    -0.115941604695E+03   -0.70524E-06   -0.21569E-05    48   0.242E-02
 211 F= -.11618604E+03 E0= -.11618604E+03  d E =-.425658E-04
       N       E                     dE             d eps       ncg     rms          rms(c)
DAV:   1    -0.115941766954E+03   -0.16296E-03   -0.19665E-02    70   0.759E-01    0.315E-02
RMM:   2    -0.115941781285E+03   -0.14332E-04   -0.28219E-04    70   0.885E-02    0.193E-02
RMM:   3    -0.115941787641E+03   -0.63552E-05   -0.43718E-05    58   0.375E-02
 212 F= -.11618620E+03 E0= -.11618620E+03  d E =-.164883E-03
       N       E                     dE             d eps       ncg     rms          rms(c)
DAV:   1    -0.115941795622E+03   -0.14336E-04   -0.27178E-04    89   0.867E-02    0.452E-03
RMM:   2    -0.115941796134E+03   -0.51209E-06   -0.60302E-06    40   0.124E-02
 213 F= -.11618621E+03 E0= -.11618621E+03  d E =-.778169E-05
       N       E                     dE             d eps       ncg     rms          rms(c)
DAV:   1    -0.115941813989E+03   -0.18367E-04   -0.36485E-04    73   0.103E-01    0.493E-03
RMM:   2    -0.115941814515E+03   -0.52587E-06   -0.63632E-06    40   0.129E-02
 214 F= -.11618623E+03 E0= -.11618623E+03  d E =-.173873E-04
       N       E                     dE             d eps       ncg     rms          rms(c)
DAV:   1    -0.115941918906E+03   -0.10492E-03   -0.43206E-02    70   0.111E+00    0.451E-02
RMM:   2    -0.115941957469E+03   -0.38562E-04   -0.65799E-04    70   0.131E-01    0.263E-02
RMM:   3    -0.115941969832E+03   -0.12363E-04   -0.10060E-04    64   0.561E-02    0.109E-02
RMM:   4    -0.115941973745E+03   -0.39132E-05   -0.23400E-05    52   0.258E-02
 215 F= -.11618638E+03 E0= -.11618638E+03  d E =-.147037E-03
