unknown system                          
           1
    15.000000    0.000000    0.000000
     0.000000   15.000000    0.000000
     0.000000    0.000000   15.000000
   C    H    N 
     8     8     2
Direct configuration=     1
   0.37307564  0.53782895  0.58841678
   0.37258290  0.44860381  0.58560608
   0.46081614  0.40413603  0.59771934
   0.46289532  0.58203025  0.59532480
   0.51951609  0.54322278  0.51740739
   0.53400565  0.44277091  0.53472769
   0.60275621  0.59109710  0.50635145
   0.53881301  0.38668659  0.45626123
   0.31478033  0.40808651  0.56821362
   0.48613513  0.41899929  0.66467533
   0.45813698  0.33195197  0.59326065
   0.31476951  0.57963411  0.57712084
   0.49881726  0.56543830  0.65678166
   0.45939909  0.65427025  0.59184751
   0.48362446  0.55294974  0.45443459
   0.59661222  0.43748067  0.57147927
   0.66751242  0.63316735  0.49893996
   0.53276904  0.33352316  0.39995253
Direct configuration=     2
   0.37315946  0.53790310  0.58844201
   0.37264867  0.44849177  0.58548799
   0.46088006  0.40425100  0.59797798
   0.46275866  0.58189805  0.59512656
   0.51947294  0.54337459  0.51725073
   0.53404488  0.44264511  0.53477785
   0.60274527  0.59104537  0.50642527
   0.53841539  0.38672725  0.45617975
   0.31475912  0.40807461  0.56840748
   0.48620350  0.41907422  0.66487701
   0.45824450  0.33174564  0.59324089
   0.31467846  0.57950384  0.57710500
   0.49881171  0.56544554  0.65697514
   0.45934609  0.65448110  0.59174548
   0.48343059  0.55296127  0.45437864
   0.59689337  0.43727680  0.57124775
   0.66780032  0.63324874  0.49887405
   0.53236641  0.33352847  0.39968416
Direct configuration=     3
   0.37316970  0.53785430  0.58843277
   0.37271847  0.44850332  0.58540777
   0.46094534  0.40422522  0.59817201
   0.46271578  0.58191356  0.59503897
   0.51942977  0.54343663  0.51714067
   0.53408108  0.44257597  0.53482067
   0.60305932  0.59122190  0.50644461
   0.53803424  0.38663383  0.45597904
   0.31472323  0.40805617  0.56859040
   0.48626609  0.41914796  0.66509705
   0.45834792  0.33163924  0.59323466
   0.31459781  0.57937972  0.57709508
   0.49876021  0.56547117  0.65707790
   0.45929492  0.65459336  0.59164869
   0.48324390  0.55297082  0.45430952
   0.59715284  0.43708284  0.57102189
   0.66777798  0.63312849  0.49885391
   0.53200836  0.33365503  0.39954378
Direct configuration=     4
   0.37317322  0.53780811  0.58840136
   0.37282761  0.44847643  0.58529169
   0.46106850  0.40416713  0.59847777
   0.46267628  0.58196911  0.59492465
   0.51944275  0.54355759  0.51697203
   0.53414373  0.44245370  0.53484867
   0.60303216  0.59117342  0.50652898
   0.53741671  0.38667215  0.45587026
   0.31467083  0.40803545  0.56890406
   0.48636188  0.41926319  0.66546558
   0.45852029  0.33148575  0.59323289
   0.31446625  0.57916327  0.57708170
   0.49865107  0.56552844  0.65721219
   0.45920541  0.65475629  0.59148423
   0.48294307  0.55298597  0.45419768
   0.59757820  0.43675384  0.57062735
   0.66820187  0.63322023  0.49877302
   0.53138836  0.33370527  0.39912058
Direct configuration=     5
   0.37316976  0.53774614  0.58827190
   0.37307974  0.44833572  0.58508520
   0.46139016  0.40399520  0.59915711
   0.46263760  0.58218805  0.59475218
   0.51945770  0.54374258  0.51664936
   0.53430356  0.44220445  0.53490524
   0.60351021  0.59143410  0.50661312
   0.53595368  0.38654675  0.45541233
   0.31454931  0.40801935  0.56967899
   0.48654601  0.41949866  0.66634768
   0.45892133  0.33118764  0.59324988
   0.31414437  0.57863393  0.57706215
   0.49831906  0.56571395  0.65742038
   0.45898322  0.65507892  0.59107999
   0.48225781  0.55300623  0.45395948
   0.59856420  0.43595762  0.56964420
   0.66870199  0.63309091  0.49866911
   0.52996037  0.33405398  0.39828931
Direct configuration=     6
   0.37318264  0.53773456  0.58824683
   0.37308044  0.44833923  0.58513889
   0.46140058  0.40399743  0.59911664
   0.46265003  0.58220962  0.59478038
   0.51948421  0.54371267  0.51669358
   0.53430725  0.44221678  0.53488091
   0.60346013  0.59141853  0.50658204
   0.53600409  0.38654802  0.45544210
   0.31454748  0.40803374  0.56968055
   0.48651139  0.41946432  0.66632480
   0.45890833  0.33122501  0.59326484
   0.31413770  0.57864252  0.57706841
   0.49829221  0.56573870  0.65736914
   0.45898383  0.65505044  0.59107939
   0.48230245  0.55299422  0.45399690
   0.59852429  0.43596437  0.56963370
   0.66869969  0.63308646  0.49868687
   0.53000640  0.33407612  0.39829089
Direct configuration=     7
   0.37321106  0.53771826  0.58816659
   0.37315219  0.44830090  0.58520594
   0.46150340  0.40398566  0.59921577
   0.46263582  0.58227071  0.59474207
   0.51952496  0.54370834  0.51669564
   0.53434822  0.44217202  0.53485850
   0.60355733  0.59149618  0.50652562
   0.53573875  0.38651029  0.45536437
   0.31451594  0.40806615  0.56989669
   0.48647820  0.41943873  0.66649193
   0.45898366  0.33121792  0.59330341
   0.31404905  0.57851303  0.57707925
   0.49816138  0.56584297  0.65734637
   0.45892608  0.65509882  0.59096705
   0.48223718  0.55296637  0.45404049
   0.59869706  0.43576766  0.56935085
   0.66875595  0.63299824  0.49871042
   0.52973804  0.33422930  0.39807787
Direct configuration=     8
   0.37324944  0.53768043  0.58803237
   0.37328043  0.44824332  0.58530233
   0.46168518  0.40395758  0.59941757
   0.46260395  0.58237903  0.59464576
   0.51960988  0.54372795  0.51667467
   0.53441945  0.44207929  0.53482390
   0.60356779  0.59152126  0.50646097
   0.53522355  0.38647923  0.45524182
   0.31446207  0.40811874  0.57030586
   0.48643871  0.41940660  0.66681771
   0.45913219  0.33118639  0.59337002
   0.31388929  0.57826446  0.57709587
   0.49793217  0.56602692  0.65733607
   0.45881740  0.65520308  0.59075290
   0.48209621  0.55291849  0.45410175
   0.59904235  0.43539425  0.56882681
   0.66903070  0.63294259  0.49872477
   0.52921179  0.33447859  0.39764577
Direct configuration=     9
   0.37327277  0.53764830  0.58795368
   0.37332412  0.44824683  0.58543249
   0.46175431  0.40397019  0.59942672
   0.46258138  0.58242448  0.59459008
   0.51966256  0.54369163  0.51673381
   0.53443914  0.44205660  0.53478895
   0.60359123  0.59155296  0.50637358
   0.53513276  0.38646470  0.45520912
   0.31445080  0.40816942  0.57048819
   0.48636558  0.41931651  0.66689055
   0.45916439  0.33122988  0.59342571
   0.31383155  0.57817269  0.57711513
   0.49781401  0.56614720  0.65728741
   0.45877563  0.65521782  0.59065444
   0.48214313  0.55286610  0.45421153
   0.59910750  0.43525861  0.56860912
   0.66903865  0.63285382  0.49877546
   0.52910806  0.33464456  0.39749143
Direct configuration=    10
   0.37328011  0.53763483  0.58788609
   0.37337607  0.44823110  0.58552804
   0.46182791  0.40397359  0.59949358
   0.46255004  0.58247097  0.59449998
   0.51972018  0.54368550  0.51675408
   0.53446060  0.44200833  0.53476966
   0.60353596  0.59151398  0.50632452
   0.53494614  0.38648787  0.45516424
   0.31444020  0.40821575  0.57073879
   0.48632280  0.41924366  0.66702244
   0.45922368  0.33123764  0.59347996
   0.31376089  0.57803890  0.57713167
   0.49768314  0.56628121  0.65727935
   0.45871673  0.65526808  0.59051498
   0.48214052  0.55281114  0.45428975
   0.59925037  0.43506644  0.56833463
   0.66919056  0.63282680  0.49880148
   0.52890398  0.33480848  0.39724258
Direct configuration=    11
   0.37327946  0.53763201  0.58786620
   0.37338656  0.44823588  0.58558443
   0.46183964  0.40398202  0.59949551
   0.46253349  0.58248430  0.59445860
   0.51973256  0.54366341  0.51678052
   0.53446012  0.44199576  0.53476792
   0.60361045  0.59154929  0.50628810
   0.53492814  0.38648336  0.45511848
   0.31444232  0.40823859  0.57084185
   0.48629726  0.41918884  0.66704348
   0.45923102  0.33125333  0.59350711
   0.31374071  0.57799667  0.57714113
   0.49763131  0.56634801  0.65727010
   0.45869619  0.65527985  0.59045180
   0.48217672  0.55277570  0.45433563
   0.59927525  0.43500611  0.56824797
   0.66913711  0.63275153  0.49883221
   0.52888427  0.33491302  0.39718290
Direct configuration=    12
   0.37328469  0.53761240  0.58781616
   0.37344020  0.44823251  0.58565775
   0.46190372  0.40397214  0.59958455
   0.46250395  0.58253810  0.59437362
   0.51977753  0.54365763  0.51678486
   0.53448153  0.44193961  0.53476302
   0.60363089  0.59153703  0.50625818
   0.53471780  0.38650959  0.45503827
   0.31442475  0.40827177  0.57111708
   0.48627699  0.41912460  0.66718964
   0.45929191  0.33124241  0.59355507
   0.31365936  0.57786259  0.57715467
   0.49749760  0.56648884  0.65727515
   0.45863270  0.65533847  0.59028958
   0.48215265  0.55271719  0.45437960
   0.59943978  0.43480283  0.56797788
   0.66925270  0.63269642  0.49885537
   0.52866827  0.33509547  0.39692607
Direct configuration=    13
   0.37328649  0.53760700  0.58778606
   0.37347944  0.44822331  0.58570221
   0.46194984  0.40395682  0.59966234
   0.46248351  0.58258424  0.59431573
   0.51980619  0.54365285  0.51678131
   0.53450095  0.44189266  0.53476598
   0.60367229  0.59153312  0.50624849
   0.53454628  0.38652434  0.45495342
   0.31440679  0.40829063  0.57133932
   0.48627307  0.41908036  0.66730818
   0.45933607  0.33122341  0.59358645
   0.31359253  0.57776160  0.57716422
   0.49739413  0.56660059  0.65728389
   0.45858189  0.65538665  0.59015323
   0.48212320  0.55267055  0.45439306
   0.59957281  0.43464354  0.56777845
   0.66933377  0.63264824  0.49886929
   0.52850472  0.33525114  0.39673394
Direct configuration=    14
   0.37328857  0.53759850  0.58775816
   0.37351927  0.44821699  0.58574201
   0.46199787  0.40393642  0.59974409
   0.46246350  0.58263381  0.59426201
   0.51983033  0.54364688  0.51677391
   0.53452328  0.44184167  0.53476775
   0.60373797  0.59154061  0.50624429
   0.53437100  0.38655517  0.45488355
   0.31438372  0.40830529  0.57156512
   0.48627395  0.41904008  0.66743124
   0.45937780  0.33119833  0.59361361
   0.31352233  0.57766378  0.57717380
   0.49729112  0.56671357  0.65729504
   0.45853057  0.65543665  0.59001169
   0.48208754  0.55262372  0.45439701
   0.59970805  0.43448338  0.56758497
   0.66940142  0.63259084  0.49888201
   0.52834151  0.33539614  0.39652338
Direct configuration=    15
   0.37329046  0.53758767  0.58771302
   0.37358112  0.44820686  0.58581466
   0.46207372  0.40390375  0.59986994
   0.46243005  0.58271393  0.59417202
   0.51987973  0.54363822  0.51676691
   0.53455914  0.44176166  0.53477239
   0.60376865  0.59150223  0.50624585
   0.53410187  0.38659391  0.45475391
   0.31434560  0.40833107  0.57193797
   0.48627166  0.41896556  0.66762402
   0.45943808  0.33115984  0.59365781
   0.31340932  0.57750828  0.57719170
   0.49712204  0.56690519  0.65731119
   0.45844718  0.65551675  0.58977488
   0.48204180  0.55254212  0.45440773
   0.59991791  0.43422620  0.56727857
   0.66956979  0.63253410  0.49889857
   0.52809982  0.33565478  0.39619527
Direct configuration=    16
   0.37329096  0.53758322  0.58768713
   0.37361201  0.44820025  0.58585859
   0.46211360  0.40388786  0.59993102
   0.46241044  0.58275550  0.59412386
   0.51989892  0.54362709  0.51676780
   0.53457802  0.44172083  0.53477477
   0.60384985  0.59152272  0.50623703
   0.53396942  0.38660528  0.45467879
   0.31432541  0.40834680  0.57213404
   0.48626648  0.41892185  0.66772094
   0.45946541  0.33114177  0.59368054
   0.31335152  0.57742877  0.57720271
   0.49703308  0.56700903  0.65731745
   0.45840387  0.65555780  0.58964928
   0.48202446  0.55249701  0.45441835
   0.60002137  0.43409379  0.56712228
   0.66959640  0.63246595  0.49891566
   0.52798679  0.33580232  0.39603345
Direct configuration=    17
   0.37329037  0.53757669  0.58765100
   0.37365629  0.44819180  0.58592435
   0.46217167  0.40386154  0.60002022
   0.46238182  0.58281817  0.59405256
   0.51993636  0.54361407  0.51676856
   0.53460662  0.44165795  0.53477673
   0.60389025  0.59149908  0.50623866
   0.53378190  0.38664578  0.45459087
   0.31429277  0.40836853  0.57243007
   0.48626040  0.41885472  0.66786278
   0.45950015  0.33111218  0.59371142
   0.31326507  0.57731478  0.57722029
   0.49690109  0.56716813  0.65732765
   0.45833933  0.65561919  0.58945599
   0.48200197  0.55242728  0.45443000
   0.60017047  0.43389898  0.56689960
   0.66970623  0.63240823  0.49893261
   0.52783037  0.33600987  0.39577000
Direct configuration=    18
   0.37328745  0.53756838  0.58760574
   0.37370580  0.44818400  0.58601820
   0.46223819  0.40382949  0.60011742
   0.46234337  0.58289437  0.59396123
   0.51998277  0.54359043  0.51677925
   0.53464046  0.44158332  0.53478134
   0.60395431  0.59147453  0.50623953
   0.53358135  0.38668795  0.45447447
   0.31425091  0.40839836  0.57280076
   0.48624638  0.41875836  0.66802390
   0.45952790  0.33107857  0.59374617
   0.31316184  0.57718324  0.57724644
   0.49673808  0.56737674  0.65733624
   0.45826061  0.65569226  0.58920800
   0.48199428  0.55233342  0.45445159
   0.60033452  0.43366712  0.56664559
   0.66981637  0.63232194  0.49895952
   0.52768195  0.33629148  0.39545852
Direct configuration=    19
   0.37328299  0.53756238  0.58756609
   0.37374659  0.44817761  0.58611006
   0.46229308  0.40380040  0.60019743
   0.46230677  0.58296236  0.59387630
   0.52002381  0.54356349  0.51679466
   0.53466833  0.44151549  0.53478548
   0.60402429  0.59145590  0.50624103
   0.53342340  0.38674308  0.45438843
   0.31421268  0.40842644  0.57314072
   0.48623147  0.41866266  0.66815951
   0.45954261  0.33104926  0.59377481
   0.31307139  0.57707035  0.57727299
   0.49659104  0.56757438  0.65734164
   0.45818956  0.65575637  0.58897598
   0.48200073  0.55224346  0.45447387
   0.60046968  0.43346327  0.56643139
   0.66989746  0.63223308  0.49898757
   0.52757581  0.33654439  0.39516345
Direct configuration=    20
   0.37327584  0.53755408  0.58751100
   0.37380211  0.44816990  0.58624388
   0.46236677  0.40375907  0.60030629
   0.46225484  0.58305757  0.59375422
   0.52008855  0.54352649  0.51681936
   0.53470591  0.44142258  0.53479521
   0.60407041  0.59139484  0.50625008
   0.53321193  0.38680803  0.45425042
   0.31415846  0.40846677  0.57362385
   0.48620899  0.41852215  0.66834501
   0.45955746  0.33100888  0.59381362
   0.31294525  0.57691421  0.57731223
   0.49638329  0.56785907  0.65734772
   0.45808913  0.65584551  0.58864352
   0.48201805  0.55211362  0.45450716
   0.60065294  0.43317874  0.56613821
   0.67005359  0.63213316  0.49902398
   0.52744441  0.33692142  0.39476211
Direct configuration=    21
   0.37327031  0.53755186  0.58749189
   0.37381807  0.44816955  0.58630787
   0.46238652  0.40374134  0.60033866
   0.46223107  0.58309473  0.59370165
   0.52011058  0.54350126  0.51683867
   0.53471672  0.44138631  0.53480451
   0.60413248  0.59138948  0.50625353
   0.53316165  0.38683535  0.45419261
   0.31413589  0.40848414  0.57382665
   0.48619730  0.41845183  0.66840341
   0.45954635  0.33099394  0.59382398
   0.31289888  0.57686128  0.57733270
   0.49630007  0.56798884  0.65734627
   0.45804850  0.65587767  0.58849600
   0.48204595  0.55205328  0.45452372
   0.60070515  0.43307385  0.56604724
   0.67006826  0.63206291  0.49904698
   0.52743977  0.33709660  0.39460564
Direct configuration=    22
   0.37326022  0.53754491  0.58743950
   0.37386803  0.44816447  0.58645643
   0.46245133  0.40369688  0.60043984
   0.46217489  0.58319199  0.59357119
   0.52017792  0.54345489  0.51687272
   0.53474996  0.44128951  0.53481808
   0.60418460  0.59131950  0.50626884
   0.53298129  0.38692413  0.45406958
   0.31407912  0.40852587  0.57433641
   0.48617316  0.41829229  0.66857778
   0.45954363  0.33095290  0.59385820
   0.31277324  0.57670999  0.57737825
   0.49608595  0.56830036  0.65734857
   0.45794374  0.65596568  0.58813586
   0.48208610  0.55191079  0.45455953
   0.60087211  0.43278952  0.56577365
   0.67021604  0.63194976  0.49908937
   0.52735224  0.33749587  0.39417572
Direct configuration=    23
   0.37324607  0.53754146  0.58739878
   0.37390172  0.44816454  0.58661069
   0.46249156  0.40365206  0.60051470
   0.46211876  0.58328025  0.59344353
   0.52023971  0.54339787  0.51691926
   0.53477236  0.44120132  0.53484199
   0.60424875  0.59124832  0.50629296
   0.53287539  0.38700746  0.45394635
   0.31402501  0.40856429  0.57482658
   0.48614997  0.41812040  0.66871000
   0.45950977  0.33091535  0.59387909
   0.31266484  0.57658737  0.57742892
   0.49588857  0.56861884  0.65734371
   0.45784469  0.65604017  0.58777348
   0.48216088  0.55176479  0.45459435
   0.60098780  0.43254285  0.56557194
   0.67032336  0.63182500  0.49913711
   0.52735826  0.33791358  0.39378904
Direct configuration=    24
   0.37323478  0.53754138  0.58738187
   0.37391297  0.44816779  0.58671121
   0.46250176  0.40362192  0.60054811
   0.46208301  0.58333156  0.59336383
   0.52027292  0.54335376  0.51695461
   0.53477878  0.44114699  0.53486093
   0.60431402  0.59121011  0.50631503
   0.53285261  0.38708154  0.45389473
   0.31399124  0.40858421  0.57512986
   0.48613983  0.41800464  0.66876951
   0.45946914  0.33089121  0.59388317
   0.31260579  0.57652631  0.57746447
   0.49577360  0.56882802  0.65733663
   0.45778341  0.65607949  0.58753739
   0.48222831  0.55167032  0.45461195
   0.60103120  0.43240749  0.56548931
   0.67035651  0.63172981  0.49917188
   0.52741434  0.33817380  0.39354202
Direct configuration=    25
   0.37323436  0.53754323  0.58739044
   0.37390430  0.44816956  0.58670105
   0.46248918  0.40362400  0.60053406
   0.46208755  0.58332193  0.59337389
   0.52026967  0.54335663  0.51695420
   0.53477272  0.44115749  0.53486492
   0.60428156  0.59119371  0.50632228
   0.53288585  0.38706682  0.45389368
   0.31399520  0.40857855  0.57508802
   0.48614440  0.41801352  0.66874467
   0.45945967  0.33089376  0.59387564
   0.31261984  0.57654605  0.57746289
   0.49579498  0.56880840  0.65733478
   0.45779174  0.65606926  0.58756077
   0.48223497  0.55168032  0.45460622
   0.60100421  0.43243926  0.56553328
   0.67036425  0.63175227  0.49916705
   0.52744872  0.33815748  0.39359310
Direct configuration=    26
   0.37323024  0.53754428  0.58739019
   0.37390325  0.44817151  0.58672860
   0.46248537  0.40361492  0.60053717
   0.46207805  0.58333349  0.59335301
   0.52027716  0.54334230  0.51696575
   0.53477100  0.44114401  0.53487265
   0.60429932  0.59117986  0.50633299
   0.53289844  0.38709360  0.45388865
   0.31398563  0.40858132  0.57516529
   0.48614438  0.41798023  0.66875018
   0.45944006  0.33088664  0.59387216
   0.31260811  0.57653741  0.57747412
   0.49576936  0.56886725  0.65733150
   0.45777570  0.65607654  0.58749466
   0.48226124  0.55165463  0.45460813
   0.60100285  0.43241258  0.56553271
   0.67036835  0.63172561  0.49917735
   0.52748665  0.33822719  0.39352761
Direct configuration=    27
   0.37318887  0.53756157  0.58742281
   0.37385513  0.44819645  0.58697104
   0.46240328  0.40352979  0.60052318
   0.46199915  0.58341781  0.59318082
   0.52033529  0.54320983  0.51707106
   0.53473428  0.44105391  0.53496630
   0.60440484  0.59100554  0.50646582
   0.53313673  0.38728221  0.45379316
   0.31390039  0.40858501  0.57578954
   0.48616838  0.41768401  0.66872009
   0.45921033  0.33082037  0.59380684
   0.31254102  0.57652341  0.57758378
   0.49559689  0.56938594  0.65729417
   0.45764334  0.65611371  0.58691315
   0.48254380  0.55143723  0.45459682
   0.60089544  0.43226098  0.56569329
   0.67039652  0.63151453  0.49926746
   0.52798898  0.33887965  0.39308287
Direct configuration=    28
   0.37319507  0.53755751  0.58741583
   0.37386648  0.44819038  0.58693197
   0.46242153  0.40354157  0.60053132
   0.46201261  0.58340658  0.59320662
   0.52033291  0.54323745  0.51704979
   0.53474252  0.44106471  0.53494769
   0.60432914  0.59099718  0.50645145
   0.53308251  0.38726248  0.45381979
   0.31391060  0.40858356  0.57569829
   0.48616740  0.41773352  0.66873490
   0.45925195  0.33082838  0.59381817
   0.31254698  0.57651970  0.57756728
   0.49562182  0.56930510  0.65730098
   0.45766076  0.65611223  0.58700084
   0.48249161  0.55147290  0.45459571
   0.60092337  0.43227615  0.56565665
   0.67045398  0.63158051  0.49924755
   0.52789049  0.33876902  0.39313109
Direct configuration=    29
   0.37318732  0.53756000  0.58742268
   0.37385777  0.44819377  0.58697267
   0.46240687  0.40352554  0.60052953
   0.46199917  0.58342104  0.59317737
   0.52033803  0.54321301  0.51706649
   0.53473577  0.44104782  0.53496425
   0.60437779  0.59098427  0.50647341
   0.53312252  0.38729666  0.45380592
   0.31389368  0.40858209  0.57580593
   0.48617513  0.41768397  0.66873001
   0.45921125  0.33081501  0.59380472
   0.31253504  0.57651828  0.57758756
   0.49559474  0.56939498  0.65729425
   0.45763624  0.65611931  0.58689812
   0.48253885  0.55143687  0.45459005
   0.60090421  0.43225077  0.56569011
   0.67043673  0.63152865  0.49926637
   0.52797838  0.33888249  0.39305106
Direct configuration=    30
   0.37318219  0.53756132  0.58742723
   0.37385260  0.44819431  0.58700029
   0.46239942  0.40351366  0.60053227
   0.46199028  0.58343292  0.59315660
   0.52034519  0.54320061  0.51707426
   0.53473361  0.44103698  0.53497645
   0.60438366  0.59095761  0.50649264
   0.53314144  0.38731059  0.45378368
   0.31388020  0.40858075  0.57588282
   0.48618245  0.41765180  0.66873140
   0.45918537  0.33080443  0.59379463
   0.31252486  0.57651515  0.57760275
   0.49557658  0.56945729  0.65728986
   0.45761730  0.65612613  0.58682494
   0.48256701  0.55141369  0.45458318
   0.60089580  0.43223046  0.56571060
   0.67045308  0.63150674  0.49927754
   0.52803163  0.33896749  0.39300104
Direct configuration=    31
   0.37317600  0.53756211  0.58743234
   0.37384630  0.44819529  0.58703208
   0.46239054  0.40349986  0.60053464
   0.46197985  0.58344611  0.59313244
   0.52035255  0.54318514  0.51708373
   0.53473023  0.44102247  0.53498772
   0.60439552  0.59093058  0.50651359
   0.53316562  0.38734411  0.45378059
   0.31386489  0.40857907  0.57597130
   0.48619062  0.41761421  0.66873253
   0.45915538  0.33079228  0.59378320
   0.31251324  0.57651137  0.57762027
   0.49555551  0.56952910  0.65728444
   0.45759536  0.65613366  0.58674074
   0.48260007  0.55138673  0.45457589
   0.60088546  0.43220701  0.56573414
   0.67046898  0.63148010  0.49929055
   0.52809192  0.33905140  0.39292560
Direct configuration=    32
   0.37305654  0.53757832  0.58753160
   0.37372355  0.44821504  0.58765008
   0.46221684  0.40323383  0.60058223
   0.46177659  0.58370222  0.59266485
   0.52049286  0.54288464  0.51726928
   0.53466728  0.44075725  0.53523043
   0.60467515  0.59044098  0.50691193
   0.53362388  0.38784175  0.45353057
   0.31356784  0.40855044  0.57768629
   0.48634593  0.41688421  0.66875620
   0.45857422  0.33055816  0.59356053
   0.31228841  0.57643792  0.57796365
   0.49514806  0.57092249  0.65717684
   0.45716880  0.65628009  0.58510944
   0.48323990  0.55086611  0.45443641
   0.60068398  0.43175489  0.56619413
   0.67073258  0.63093552  0.49955130
   0.52927847  0.34079702  0.39161818
Direct configuration=    33
   0.37308087  0.53757269  0.58750967
   0.37374873  0.44820784  0.58752422
   0.46225382  0.40328714  0.60057683
   0.46181743  0.58365226  0.59275837
   0.52046559  0.54294951  0.51722792
   0.53468162  0.44080895  0.53518203
   0.60462010  0.59054447  0.50682804
   0.53351932  0.38771184  0.45355030
   0.31362830  0.40855941  0.57734136
   0.48631436  0.41703271  0.66875738
   0.45869673  0.33060578  0.59360428
   0.31233211  0.57644747  0.57789907
   0.49523137  0.57064159  0.65719145
   0.45725035  0.65624947  0.58543848
   0.48310443  0.55097596  0.45446419
   0.60072934  0.43184322  0.56609632
   0.67068630  0.63104227  0.49950307
   0.52903056  0.34046917  0.39190938
Direct configuration=    34
   0.37306554  0.53757301  0.58752162
   0.37373357  0.44820917  0.58760509
   0.46223260  0.40325218  0.60058508
   0.46179038  0.58368624  0.59269550
   0.52048488  0.54291185  0.51724993
   0.53467355  0.44077033  0.53521025
   0.60465384  0.59048033  0.50687863
   0.53357429  0.38778984  0.45353898
   0.31358934  0.40855704  0.57756736
   0.48633490  0.41693765  0.66876382
   0.45862391  0.33057522  0.59357475
   0.31230149  0.57643444  0.57794702
   0.49517885  0.57082481  0.65717329
   0.45719138  0.65626841  0.58522400
   0.48318488  0.55091065  0.45444571
   0.60070527  0.43178177  0.56615261
   0.67072844  0.63097003  0.49953991
   0.52917778  0.34068767  0.39171849
Direct configuration=    35
   0.37306345  0.53757056  0.58752243
   0.37373247  0.44820734  0.58762040
   0.46223097  0.40324525  0.60059001
   0.46178426  0.58369350  0.59268078
   0.52048869  0.54290711  0.51725042
   0.53467313  0.44076178  0.53521506
   0.60466624  0.59047481  0.50688455
   0.53357488  0.38779405  0.45352968
   0.31358152  0.40855867  0.57761289
   0.48633870  0.41691999  0.66877021
   0.45861496  0.33056949  0.59356836
   0.31229378  0.57642666  0.57796105
   0.49517027  0.57086108  0.65716388
   0.45717520  0.65627195  0.58518153
   0.48319508  0.55090250  0.45444178
   0.60070455  0.43176681  0.56615776
   0.67073918  0.63095064  0.49955185
   0.52919530  0.34073717  0.39168741
Direct configuration=    36
   0.37304301  0.53756385  0.58753688
   0.37371473  0.44820221  0.58774911
   0.46220670  0.40319002  0.60061421
   0.46173923  0.58374965  0.59257043
   0.52052224  0.54285799  0.51727148
   0.53466454  0.44070238  0.53525931
   0.60470751  0.59037741  0.50695395
   0.53362749  0.38787177  0.45347755
   0.31351953  0.40856126  0.57797788
   0.48637085  0.41677138  0.66879667
   0.45851777  0.33052160  0.59351965
   0.31223960  0.57638750  0.57805371
   0.49509344  0.57115483  0.65711536
   0.45706520  0.65630082  0.58483666
   0.48330575  0.55081410  0.45441063
   0.60067961  0.43165917  0.56622570
   0.67083827  0.63083365  0.49962303
   0.52938956  0.34111238  0.39141769
Direct configuration=    37
   0.37304516  0.53756178  0.58753509
   0.37371817  0.44820105  0.58774143
   0.46221135  0.40319383  0.60061481
   0.46174128  0.58374629  0.59257447
   0.52051715  0.54286079  0.51726693
   0.53466498  0.44070431  0.53525297
   0.60473094  0.59040159  0.50694380
   0.53361639  0.38787929  0.45350224
   0.31352371  0.40856202  0.57795646
   0.48636894  0.41678161  0.66879868
   0.45852939  0.33052498  0.59352321
   0.31224149  0.57638490  0.57805215
   0.49510025  0.57113679  0.65711328
   0.45706764  0.65629895  0.58485758
   0.48329439  0.55082368  0.45441196
   0.60068411  0.43166335  0.56621421
   0.67081562  0.63082446  0.49962512
   0.52936284  0.34107597  0.39141554
Direct configuration=    38
   0.37304173  0.53756027  0.58753764
   0.37371587  0.44820011  0.58776306
   0.46220771  0.40318463  0.60061895
   0.46173376  0.58375537  0.59255550
   0.52052303  0.54285275  0.51727022
   0.53466315  0.44069593  0.53526228
   0.60473453  0.59038304  0.50695572
   0.53362328  0.38788237  0.45347894
   0.31351365  0.40856227  0.57801757
   0.48637422  0.41675685  0.66880313
   0.45851406  0.33051718  0.59351566
   0.31223221  0.57637766  0.57806826
   0.49508777  0.57118584  0.65710456
   0.45704857  0.65630389  0.58480008
   0.48331257  0.55080933  0.45440655
   0.60067981  0.43164535  0.56622420
   0.67083596  0.63080585  0.49963771
   0.52939388  0.34114804  0.39138166
Direct configuration=    39
   0.37303965  0.53755851  0.58753932
   0.37371478  0.44819849  0.58777887
   0.46220623  0.40317822  0.60062272
   0.46172834  0.58376198  0.59254062
   0.52052721  0.54284770  0.51727102
   0.53466166  0.44068908  0.53526605
   0.60473611  0.59036986  0.50696307
   0.53362594  0.38789616  0.45347896
   0.31350688  0.40856259  0.57806121
   0.48637796  0.41673968  0.66880743
   0.45850536  0.33051184  0.59351066
   0.31222510  0.57637060  0.57808112
   0.49507974  0.57122046  0.65709661
   0.45703345  0.65630716  0.58475920
   0.48332408  0.55080056  0.45440246
   0.60067792  0.43163176  0.56622829
   0.67085367  0.63079256  0.49964769
   0.52940919  0.34118815  0.39134419
Direct configuration=    40
   0.37303525  0.53755500  0.58754318
   0.37371213  0.44819570  0.58781321
   0.46220277  0.40316480  0.60063027
   0.46171661  0.58377641  0.59250953
   0.52053386  0.54283521  0.51727368
   0.53465865  0.44067532  0.53527579
   0.60476130  0.59035449  0.50697694
   0.53363203  0.38791566  0.45346576
   0.31349212  0.40856321  0.57815582
   0.48638605  0.41670236  0.66881636
   0.45848573  0.33050021  0.59349972
   0.31220988  0.57635620  0.57810865
   0.49506211  0.57129577  0.65708010
   0.45700128  0.65631438  0.58467043
   0.48334963  0.55078102  0.45439351
   0.60067314  0.43160297  0.56623827
   0.67087193  0.63075254  0.49967100
   0.52944494  0.34128192  0.39127384
Direct configuration=    41
   0.37302984  0.53754996  0.58754833
   0.37370942  0.44819197  0.58785675
   0.46219906  0.40314793  0.60064031
   0.46170194  0.58379458  0.59246997
   0.52054553  0.54282242  0.51727571
   0.53465501  0.44065939  0.53528894
   0.60476439  0.59031715  0.50699738
   0.53363689  0.38793117  0.45343476
   0.31347415  0.40856385  0.57827452
   0.48639628  0.41665594  0.66882823
   0.45846296  0.33048589  0.59348663
   0.31219055  0.57633679  0.57814433
   0.49504074  0.57139000  0.65705796
   0.45695991  0.65632345  0.58455933
   0.48338078  0.55075751  0.45438165
   0.60066776  0.43156683  0.56624851
   0.67091956  0.63071457  0.49969954
   0.52948675  0.34140933  0.39119622
Direct configuration=    42
   0.37298394  0.53751077  0.58759095
   0.37368414  0.44816188  0.58821741
   0.46216547  0.40300769  0.60071929
   0.46157903  0.58394562  0.59214476
   0.52062416  0.54270118  0.51729851
   0.53462289  0.44051492  0.53538444
   0.60493928  0.59009684  0.50715313
   0.53369469  0.38815325  0.45330379
   0.31332380  0.40856793  0.57926115
   0.48648194  0.41626844  0.66892206
   0.45826587  0.33036595  0.59337649
   0.31203150  0.57618180  0.57843504
   0.49485997  0.57217405  0.65688042
   0.45662124  0.65639891  0.58363473
   0.48364534  0.55055628  0.45428475