  19  19   0   0
  0.3535719E+03  0.2291930E-08  0.1741290E-08  0.1683290E-08  0.5000000E-15
  1.000000000000000E-004
  CAR 
 unknown system                          
      1.97021784    -23.09063144  301     -5.20867128      1.00000000
    -23.091  0.0000E+00  0.0000E+00
    -23.007  0.0000E+00  0.0000E+00
    -22.924  0.0000E+00  0.0000E+00
    -22.840  0.0000E+00  0.0000E+00
    -22.756  0.0000E+00  0.0000E+00
    -22.673  0.0000E+00  0.0000E+00
    -22.589  0.0000E+00  0.0000E+00
    -22.506  0.0000E+00  0.0000E+00
    -22.422  0.0000E+00  0.0000E+00
    -22.339  0.0000E+00  0.0000E+00
    -22.255  0.0000E+00  0.0000E+00
    -22.172  0.5616E-08  0.4691E-09
    -22.088  0.1323E-02  0.1105E-03
    -22.005  0.1587E+01  0.1327E+00
    -21.921  0.1768E+02  0.1610E+01
    -21.838  0.4656E+01  0.1999E+01
    -21.754  0.1524E-01  0.2000E+01
    -21.671  0.2802E-06  0.2000E+01
    -21.587  0.2126E-13  0.2000E+01
    -21.503  0.0000E+00  0.2000E+01
    -21.420  0.0000E+00  0.2000E+01
    -21.336  0.0000E+00  0.2000E+01
    -21.253  0.0000E+00  0.2000E+01
    -21.169  0.0000E+00  0.2000E+01
    -21.086  0.0000E+00  0.2000E+01
    -21.002  0.0000E+00  0.2000E+01
    -20.919  0.0000E+00  0.2000E+01
    -20.835  0.0000E+00  0.2000E+01
    -20.752  0.0000E+00  0.2000E+01
    -20.668  0.0000E+00  0.2000E+01
    -20.585  0.0000E+00  0.2000E+01
    -20.501  0.0000E+00  0.2000E+01
    -20.417  0.0000E+00  0.2000E+01
    -20.334  0.0000E+00  0.2000E+01
    -20.250  0.0000E+00  0.2000E+01
    -20.167  0.0000E+00  0.2000E+01
    -20.083  0.0000E+00  0.2000E+01
    -20.000  0.0000E+00  0.2000E+01
    -19.916  0.0000E+00  0.2000E+01
    -19.833  0.0000E+00  0.2000E+01
    -19.749  0.7974E-14  0.2000E+01
    -19.666  0.1398E-06  0.2000E+01
    -19.582  0.9971E-02  0.2001E+01
    -19.499  0.3912E+01  0.2328E+01
    -19.415  0.1803E+02  0.3834E+01
    -19.332  0.1990E+01  0.4000E+01
    -19.248  0.2145E-02  0.4000E+01
    -19.164  0.1197E-07  0.4000E+01
    -19.081  0.0000E+00  0.4000E+01
    -18.997  0.0000E+00  0.4000E+01
    -18.914  0.0000E+00  0.4000E+01
    -18.830  0.0000E+00  0.4000E+01
    -18.747  0.0000E+00  0.4000E+01
    -18.663  0.0000E+00  0.4000E+01
    -18.580  0.0000E+00  0.4000E+01
    -18.496  0.0000E+00  0.4000E+01
    -18.413  0.0000E+00  0.4000E+01
    -18.329  0.0000E+00  0.4000E+01
    -18.246  0.2415E-10  0.4000E+01
    -18.162  0.3597E-04  0.4000E+01
    -18.078  0.2515E+00  0.4021E+01
    -17.995  0.1224E+02  0.5044E+01
    -17.911  0.1126E+02  0.5984E+01
    -17.828  0.1869E+00  0.6000E+01
    -17.744  0.2093E-04  0.6000E+01
    -17.661  0.1091E-10  0.6000E+01
    -17.577  0.0000E+00  0.6000E+01
    -17.494  0.0000E+00  0.6000E+01
    -17.410  0.0000E+00  0.6000E+01
    -17.327  0.0000E+00  0.6000E+01
    -17.243  0.0000E+00  0.6000E+01
    -17.160  0.0000E+00  0.6000E+01
    -17.076  0.0000E+00  0.6000E+01
    -16.992  0.0000E+00  0.6000E+01
    -16.909  0.0000E+00  0.6000E+01
    -16.825  0.0000E+00  0.6000E+01
    -16.742  0.0000E+00  0.6000E+01
    -16.658  0.0000E+00  0.6000E+01
    -16.575  0.0000E+00  0.6000E+01
    -16.491  0.0000E+00  0.6000E+01
    -16.408  0.0000E+00  0.6000E+01
    -16.324  0.4221E-08  0.6000E+01
    -16.241  0.1101E-02  0.6000E+01
    -16.157  0.1454E+01  0.6122E+01
    -16.074  0.1751E+02  0.7585E+01
    -15.990  0.4954E+01  0.7999E+01
    -15.907  0.1779E-01  0.8000E+01
    -15.823  0.3618E-06  0.8000E+01
    -15.739  0.3190E-13  0.8000E+01
    -15.656  0.0000E+00  0.8000E+01
    -15.572  0.0000E+00  0.8000E+01
    -15.489  0.0000E+00  0.8000E+01
    -15.405  0.0000E+00  0.8000E+01
    -15.322  0.0000E+00  0.8000E+01
    -15.238  0.0000E+00  0.8000E+01
    -15.155  0.0000E+00  0.8000E+01
    -15.071  0.0000E+00  0.8000E+01
    -14.988  0.0000E+00  0.8000E+01
    -14.904  0.0000E+00  0.8000E+01
    -14.821  0.0000E+00  0.8000E+01
    -14.737  0.0000E+00  0.8000E+01
    -14.653  0.0000E+00  0.8000E+01
    -14.570  0.0000E+00  0.8000E+01
    -14.486  0.1232E-07  0.8000E+01
    -14.403  0.2184E-02  0.8000E+01
    -14.319  0.2006E+01  0.8168E+01
    -14.236  0.1804E+02  0.9675E+01
    -14.152  0.3886E+01  0.9999E+01
    -14.069  0.9808E-02  0.1000E+02
    -13.985  0.1361E-06  0.1000E+02
    -13.902  0.1400E-04  0.1000E+02
    -13.818  0.1495E+00  0.1001E+02
    -13.735  0.1053E+02  0.1089E+02
    -13.651  0.1295E+02  0.1197E+02
    -13.568  0.3101E+00  0.1200E+02
    -13.484  0.5297E-04  0.1200E+02
    -13.400  0.4277E-10  0.1200E+02
    -13.317  0.0000E+00  0.1200E+02
    -13.233  0.0000E+00  0.1200E+02
    -13.150  0.0000E+00  0.1200E+02
    -13.066  0.0000E+00  0.1200E+02
    -12.983  0.0000E+00  0.1200E+02
    -12.899  0.0000E+00  0.1200E+02
    -12.816  0.0000E+00  0.1200E+02
    -12.732  0.0000E+00  0.1200E+02
    -12.649  0.0000E+00  0.1200E+02
    -12.565  0.0000E+00  0.1200E+02
    -12.482  0.0000E+00  0.1200E+02
    -12.398  0.0000E+00  0.1200E+02
    -12.314  0.0000E+00  0.1200E+02
    -12.231  0.0000E+00  0.1200E+02
    -12.147  0.0000E+00  0.1200E+02
    -12.064  0.0000E+00  0.1200E+02
    -11.980  0.0000E+00  0.1200E+02
    -11.897  0.8033E-08  0.1200E+02
    -11.813  0.1663E-02  0.1200E+02
    -11.730  0.1768E+01  0.1215E+02
    -11.646  0.1786E+02  0.1364E+02
    -11.563  0.4323E+01  0.1400E+02
    -11.479  0.5835E+01  0.1449E+02
    -11.396  0.1696E+02  0.1591E+02
    -11.312  0.1135E+01  0.1600E+02
    -11.228  0.6593E-03  0.1600E+02
    -11.145  0.1914E-08  0.1600E+02
    -11.061  0.5750E-05  0.1600E+02
    -10.978  0.9046E-01  0.1601E+02
    -10.894  0.8980E+01  0.1676E+02
    -10.811  0.1439E+02  0.1796E+02
    -10.727  0.4781E+00  0.1800E+02
    -10.644  0.1198E-03  0.1800E+02
    -10.560  0.1375E-02  0.1800E+02
    -10.477  0.1617E+01  0.1814E+02
    -10.393  0.1771E+02  0.1961E+02
    -10.310  0.4594E+01  0.2000E+02
    -10.226  0.1474E-01  0.2000E+02
    -10.143  0.2653E-06  0.2000E+02
    -10.059  0.2126E-13  0.2000E+02
     -9.975  0.0000E+00  0.2000E+02
     -9.892  0.1910E-10  0.2000E+02
     -9.808  0.3067E-04  0.2000E+02
     -9.725  0.2306E+00  0.2002E+02
     -9.641  0.1195E+02  0.2102E+02
     -9.558  0.1156E+02  0.2198E+02
     -9.474  0.3712E+01  0.2229E+02
     -9.391  0.1816E+02  0.2381E+02
     -9.307  0.2263E+01  0.2400E+02
     -9.224  0.2850E-02  0.2400E+02
     -9.140  0.1006E+00  0.2401E+02
     -9.057  0.9297E+01  0.2479E+02
     -8.973  0.1411E+02  0.2596E+02
     -8.889  0.4382E+00  0.2600E+02
     -8.806  0.1015E-03  0.2600E+02
     -8.722  0.1124E-09  0.2600E+02
     -8.639  0.0000E+00  0.2600E+02
     -8.555  0.0000E+00  0.2600E+02
     -8.472  0.7018E-09  0.2600E+02
     -8.388  0.3422E-03  0.2600E+02
     -8.305  0.8197E+00  0.2607E+02
     -8.221  0.1608E+02  0.2741E+02
     -8.138  0.7000E+01  0.2800E+02
     -8.054  0.4574E-01  0.2800E+02
     -7.971  0.1742E+01  0.2815E+02
     -7.887  0.1784E+02  0.2964E+02
     -7.804  0.4538E+01  0.3001E+02
     -7.720  0.1137E+02  0.3096E+02
     -7.636  0.1215E+02  0.3198E+02
     -7.553  0.2447E+00  0.3200E+02
     -7.469  0.1005E-01  0.3200E+02
     -7.386  0.3920E+01  0.3233E+02
     -7.302  0.1802E+02  0.3383E+02
     -7.219  0.1988E+01  0.3400E+02
     -7.135  0.2295E+01  0.3419E+02
     -7.052  0.1817E+02  0.3571E+02
     -6.968  0.3467E+01  0.3600E+02
     -6.885  0.7489E-02  0.3600E+02
     -6.801  0.8783E-07  0.3600E+02
     -6.718  0.5316E-14  0.3600E+02
     -6.634  0.0000E+00  0.3600E+02
     -6.550  0.0000E+00  0.3600E+02
     -6.467  0.0000E+00  0.3600E+02
     -6.383  0.0000E+00  0.3600E+02
     -6.300  0.0000E+00  0.3600E+02
     -6.216  0.0000E+00  0.3600E+02
     -6.133  0.0000E+00  0.3600E+02
     -6.049  0.0000E+00  0.3600E+02
     -5.966  0.0000E+00  0.3600E+02
     -5.882  0.0000E+00  0.3600E+02
     -5.799  0.0000E+00  0.3600E+02
     -5.715  0.2724E-09  0.3600E+02
     -5.632  0.1831E-03  0.3600E+02
     -5.548  0.5961E+00  0.3605E+02
     -5.465  0.1511E+02  0.3731E+02
     -5.381  0.8171E+01  0.3799E+02
     -5.297  0.6837E-01  0.3800E+02
     -5.214  0.3530E-05  0.3800E+02
     -5.130  0.8293E-12  0.3800E+02
     -5.047  0.0000E+00  0.3800E+02
     -4.963  0.0000E+00  0.3800E+02
     -4.880  0.0000E+00  0.3800E+02
     -4.796  0.0000E+00  0.3800E+02
     -4.713  0.0000E+00  0.3800E+02
     -4.629  0.0000E+00  0.3800E+02
     -4.546  0.0000E+00  0.3800E+02
     -4.462  0.0000E+00  0.3800E+02
     -4.379  0.0000E+00  0.3800E+02
     -4.295  0.0000E+00  0.3800E+02
     -4.211  0.0000E+00  0.3800E+02
     -4.128  0.0000E+00  0.3800E+02
     -4.044  0.0000E+00  0.3800E+02
     -3.961  0.0000E+00  0.3800E+02
     -3.877  0.0000E+00  0.3800E+02
     -3.794  0.0000E+00  0.3800E+02
     -3.710  0.0000E+00  0.3800E+02
     -3.627  0.0000E+00  0.3800E+02
     -3.543  0.0000E+00  0.3800E+02
     -3.460  0.0000E+00  0.3800E+02
     -3.376  0.0000E+00  0.3800E+02
     -3.293  0.0000E+00  0.3800E+02
     -3.209  0.0000E+00  0.3800E+02
     -3.125  0.0000E+00  0.3800E+02
     -3.042  0.0000E+00  0.3800E+02
     -2.958  0.0000E+00  0.3800E+02
     -2.875  0.0000E+00  0.3800E+02
     -2.791  0.0000E+00  0.3800E+02
     -2.708  0.0000E+00  0.3800E+02
     -2.624  0.0000E+00  0.3800E+02
     -2.541  0.0000E+00  0.3800E+02
     -2.457  0.0000E+00  0.3800E+02
     -2.374  0.0000E+00  0.3800E+02
     -2.290  0.0000E+00  0.3800E+02
     -2.207  0.0000E+00  0.3800E+02
     -2.123  0.0000E+00  0.3800E+02
     -2.040  0.0000E+00  0.3800E+02
     -1.956  0.0000E+00  0.3800E+02
     -1.872  0.0000E+00  0.3800E+02
     -1.789  0.0000E+00  0.3800E+02
     -1.705  0.0000E+00  0.3800E+02
     -1.622  0.0000E+00  0.3800E+02
     -1.538  0.0000E+00  0.3800E+02
     -1.455  0.0000E+00  0.3800E+02
     -1.371  0.0000E+00  0.3800E+02
     -1.288  0.0000E+00  0.3800E+02
     -1.204  0.0000E+00  0.3800E+02
     -1.121  0.0000E+00  0.3800E+02
     -1.037  0.0000E+00  0.3800E+02
     -0.954  0.0000E+00  0.3800E+02
     -0.870  0.1402E-09  0.3800E+02
     -0.786  0.1176E-03  0.3800E+02
     -0.703  0.4735E+00  0.3804E+02
     -0.619  0.1436E+02  0.3924E+02
     -0.536  0.9015E+01  0.3999E+02
     -0.452  0.9471E-01  0.4000E+02
     -0.369  0.2380E+01  0.4020E+02
     -0.285  0.1820E+02  0.4172E+02
     -0.202  0.3354E+01  0.4200E+02
     -0.118  0.9480E+00  0.4208E+02
     -0.035  0.1858E+02  0.4363E+02
      0.049  0.2519E+02  0.4574E+02
      0.132  0.1881E+02  0.4731E+02
      0.216  0.1453E+02  0.4852E+02
      0.299  0.1671E+02  0.4992E+02
      0.383  0.4970E+01  0.5033E+02
      0.467  0.3956E+02  0.5364E+02
      0.550  0.4934E+02  0.5776E+02
      0.634  0.2592E+02  0.5992E+02
      0.717  0.1807E+02  0.6143E+02
      0.801  0.1141E+02  0.6239E+02
      0.884  0.1772E+02  0.6387E+02
      0.968  0.1587E+01  0.6400E+02
      1.051  0.1323E-02  0.6400E+02
      1.135  0.5616E-08  0.6400E+02
      1.218  0.0000E+00  0.6400E+02
      1.302  0.0000E+00  0.6400E+02
      1.385  0.0000E+00  0.6400E+02
      1.469  0.0000E+00  0.6400E+02
      1.553  0.0000E+00  0.6400E+02
      1.636  0.0000E+00  0.6400E+02
      1.720  0.0000E+00  0.6400E+02
      1.803  0.0000E+00  0.6400E+02
      1.887  0.0000E+00  0.6400E+02
      1.970  0.0000E+00  0.6400E+02
