       N       E                     dE             d eps       ncg     rms          rms(c)
DAV:   1     0.446388999055E+03    0.44639E+03   -0.12810E+04    86   0.725E+02
DAV:   2     0.889880612815E+02   -0.35740E+03   -0.33804E+03   124   0.142E+02
DAV:   3    -0.103454053989E+03   -0.19244E+03   -0.19173E+03    84   0.114E+02
DAV:   4    -0.126687269816E+03   -0.23233E+02   -0.23116E+02    92   0.561E+01
DAV:   5    -0.127165378848E+03   -0.47811E+00   -0.47492E+00   108   0.877E+00    0.184E+01
RMM:   6    -0.118199089599E+03    0.89663E+01   -0.13456E+01    70   0.143E+01    0.101E+01
RMM:   7    -0.116061395040E+03    0.21377E+01   -0.95660E+00    70   0.120E+01    0.445E+00
RMM:   8    -0.115863964146E+03    0.19743E+00   -0.11220E+00    70   0.483E+00    0.241E+00
RMM:   9    -0.115783738632E+03    0.80226E-01   -0.37633E-01    71   0.249E+00    0.449E-01
RMM:  10    -0.115795835017E+03   -0.12096E-01   -0.95973E-02    81   0.113E+00    0.274E-01
RMM:  11    -0.115807408201E+03   -0.11573E-01   -0.28952E-02    70   0.717E-01    0.258E-01
RMM:  12    -0.115807539485E+03   -0.13128E-03   -0.41400E-03    71   0.301E-01    0.146E-01
RMM:  13    -0.115823603779E+03   -0.16064E-01   -0.16782E-02    70   0.428E-01    0.130E-01
RMM:  14    -0.115823174596E+03    0.42918E-03   -0.23179E-03    70   0.195E-01    0.692E-02
RMM:  15    -0.115832344464E+03   -0.91699E-02   -0.36137E-03    70   0.206E-01    0.534E-02
RMM:  16    -0.115833706399E+03   -0.13619E-02   -0.11135E-03    76   0.950E-02    0.338E-02
RMM:  17    -0.115835288653E+03   -0.15823E-02   -0.42548E-04    69   0.726E-02    0.214E-02
RMM:  18    -0.115836520376E+03   -0.12317E-02   -0.18379E-04    66   0.479E-02    0.187E-02
RMM:  19    -0.115837002789E+03   -0.48241E-03   -0.63513E-05    58   0.248E-02    0.549E-03
RMM:  20    -0.115837169412E+03   -0.16662E-03   -0.35065E-05    55   0.193E-02    0.387E-03
RMM:  21    -0.115837259734E+03   -0.90323E-04   -0.76307E-06    45   0.101E-02    0.195E-03
RMM:  22    -0.115837295412E+03   -0.35678E-04   -0.27379E-06    38   0.600E-03    0.128E-03
RMM:  23    -0.115837308535E+03   -0.13123E-04   -0.14185E-06    40   0.485E-03    0.109E-03
RMM:  24    -0.115837320656E+03   -0.12121E-04   -0.52135E-07    27   0.334E-03    0.559E-04
RMM:  25    -0.115837323984E+03   -0.33278E-05   -0.21338E-07    23   0.305E-03
   1 F= -.11607877E+03 E0= -.11607877E+03  d E =-.116079E+03
       N       E                     dE             d eps       ncg     rms          rms(c)
DAV:   1    -0.115852126168E+03   -0.14806E-01   -0.55017E-01    92   0.423E+00    0.193E-01
RMM:   2    -0.115852424315E+03   -0.29815E-03   -0.10129E-02    70   0.543E-01    0.114E-01
RMM:   3    -0.115852409570E+03    0.14745E-04   -0.17012E-03    70   0.232E-01    0.628E-02
RMM:   4    -0.115852459272E+03   -0.49702E-04   -0.60308E-04    70   0.127E-01    0.320E-02
RMM:   5    -0.115852473808E+03   -0.14537E-04   -0.11049E-04    74   0.560E-02    0.173E-02
RMM:   6    -0.115852481343E+03   -0.75349E-05   -0.30696E-05    52   0.272E-02
   2 F= -.11609388E+03 E0= -.11609388E+03  d E =-.151130E-01
       N       E                     dE             d eps       ncg     rms          rms(c)
DAV:   1    -0.115861443352E+03   -0.89695E-02   -0.38868E-01    76   0.356E+00    0.224E-01
RMM:   2    -0.115861250533E+03    0.19282E-03   -0.74423E-03    70   0.478E-01    0.120E-01
RMM:   3    -0.115861157595E+03    0.92938E-04   -0.11952E-03    70   0.194E-01    0.608E-02
RMM:   4    -0.115861190347E+03   -0.32752E-04   -0.62973E-04    70   0.120E-01    0.177E-02
RMM:   5    -0.115861191145E+03   -0.79821E-06   -0.77318E-05    62   0.476E-02
   3 F= -.11610269E+03 E0= -.11610269E+03  d E =-.881063E-02
       N       E                     dE             d eps       ncg     rms          rms(c)
DAV:   1    -0.115873434625E+03   -0.12244E-01   -0.92794E-01    76   0.528E+00    0.262E-01
RMM:   2    -0.115873996662E+03   -0.56204E-03   -0.16847E-02    70   0.661E-01    0.145E-01
RMM:   3    -0.115874051061E+03   -0.54399E-04   -0.27127E-03    70   0.285E-01    0.876E-02
RMM:   4    -0.115874153813E+03   -0.10275E-03   -0.79755E-04    70   0.147E-01    0.511E-02
RMM:   5    -0.115874192556E+03   -0.38743E-04   -0.16133E-04    71   0.699E-02    0.155E-02
RMM:   6    -0.115874207469E+03   -0.14913E-04   -0.58178E-05    56   0.372E-02    0.600E-03
RMM:   7    -0.115874209209E+03   -0.17410E-05   -0.71353E-06    45   0.141E-02
   4 F= -.11611561E+03 E0= -.11611561E+03  d E =-.129219E-01
       N       E                     dE             d eps       ncg     rms          rms(c)
DAV:   1    -0.115887623801E+03   -0.13416E-01   -0.35858E+00    70   0.106E+01    0.533E-01
RMM:   2    -0.115890306087E+03   -0.26823E-02   -0.51106E-02    70   0.123E+00    0.261E-01
RMM:   3    -0.115890862581E+03   -0.55649E-03   -0.85544E-03    70   0.518E-01    0.135E-01
RMM:   4    -0.115891186904E+03   -0.32432E-03   -0.22550E-03    73   0.249E-01    0.632E-02
RMM:   5    -0.115891275534E+03   -0.88631E-04   -0.50708E-04    76   0.118E-01    0.196E-02
RMM:   6    -0.115891297714E+03   -0.22180E-04   -0.10234E-04    66   0.535E-02    0.153E-02
RMM:   7    -0.115891308022E+03   -0.10308E-04   -0.16264E-05    47   0.201E-02    0.837E-03
RMM:   8    -0.115891323243E+03   -0.15220E-04   -0.63791E-06    45   0.117E-02    0.192E-03
RMM:   9    -0.115891329408E+03   -0.61653E-05   -0.19004E-06    45   0.691E-03
   5 F= -.11613275E+03 E0= -.11613275E+03  d E =-.171382E-01
       N       E                     dE             d eps       ncg     rms          rms(c)
DAV:   1    -0.115891905984E+03   -0.58274E-03   -0.20489E-02    76   0.830E-01    0.343E-02
RMM:   2    -0.115891920091E+03   -0.14107E-04   -0.31967E-04    70   0.104E-01    0.212E-02
RMM:   3    -0.115891920382E+03   -0.29030E-06   -0.58007E-05    68   0.417E-02
   6 F= -.11613332E+03 E0= -.11613332E+03  d E =-.564197E-03
       N       E                     dE             d eps       ncg     rms          rms(c)
DAV:   1    -0.115894727267E+03   -0.28072E-02   -0.13725E-01    70   0.205E+00    0.106E-01
RMM:   2    -0.115894793361E+03   -0.66094E-04   -0.21252E-03    70   0.249E-01    0.552E-02
RMM:   3    -0.115894830053E+03   -0.36692E-04   -0.34595E-04    70   0.105E-01    0.267E-02
RMM:   4    -0.115894847482E+03   -0.17430E-04   -0.94568E-05    68   0.522E-02    0.110E-02
RMM:   5    -0.115894851770E+03   -0.42878E-05   -0.21224E-05    49   0.244E-02
   7 F= -.11613623E+03 E0= -.11613623E+03  d E =-.291458E-02
       N       E                     dE             d eps       ncg     rms          rms(c)
DAV:   1    -0.115899600956E+03   -0.47535E-02   -0.50768E-01    70   0.380E+00    0.182E-01
RMM:   2    -0.115900014401E+03   -0.41345E-03   -0.79812E-03    70   0.453E-01    0.972E-02
RMM:   3    -0.115900150419E+03   -0.13602E-03   -0.12890E-03    70   0.194E-01    0.519E-02
RMM:   4    -0.115900218016E+03   -0.67597E-04   -0.34734E-04    73   0.935E-02    0.272E-02
RMM:   5    -0.115900232902E+03   -0.14886E-04   -0.75210E-05    60   0.447E-02    0.103E-02
RMM:   6    -0.115900238114E+03   -0.52126E-05   -0.13931E-05    47   0.211E-02
   8 F= -.11614153E+03 E0= -.11614153E+03  d E =-.530368E-02
       N       E                     dE             d eps       ncg     rms          rms(c)
DAV:   1    -0.115902291508E+03   -0.20586E-02   -0.81275E-02    76   0.160E+00    0.641E-02
RMM:   2    -0.115902345718E+03   -0.54209E-04   -0.12371E-03    70   0.187E-01    0.383E-02
RMM:   3    -0.115902366812E+03   -0.21095E-04   -0.20988E-04    70   0.807E-02    0.175E-02
RMM:   4    -0.115902377231E+03   -0.10419E-04   -0.58931E-05    60   0.410E-02    0.684E-03
RMM:   5    -0.115902379904E+03   -0.26731E-05   -0.13836E-05    47   0.191E-02
   9 F= -.11614366E+03 E0= -.11614366E+03  d E =-.212215E-02
       N       E                     dE             d eps       ncg     rms          rms(c)
DAV:   1    -0.115904818907E+03   -0.24417E-02   -0.13285E-01    70   0.193E+00    0.895E-02
RMM:   2    -0.115904887442E+03   -0.68534E-04   -0.23402E-03    70   0.239E-01    0.532E-02
RMM:   3    -0.115904914989E+03   -0.27548E-04   -0.36882E-04    71   0.103E-01    0.310E-02
RMM:   4    -0.115904938439E+03   -0.23450E-04   -0.11948E-04    67   0.552E-02    0.130E-02
RMM:   5    -0.115904943638E+03   -0.51991E-05   -0.25666E-05    52   0.245E-02
  10 F= -.11614617E+03 E0= -.11614617E+03  d E =-.251087E-02
       N       E                     dE             d eps       ncg     rms          rms(c)
DAV:   1    -0.115906162500E+03   -0.12241E-02   -0.43527E-02    70   0.111E+00    0.691E-02
RMM:   2    -0.115906173198E+03   -0.10698E-04   -0.98255E-04    70   0.153E-01    0.381E-02
RMM:   3    -0.115906170515E+03    0.26824E-05   -0.15301E-04    64   0.664E-02    0.216E-02
RMM:   4    -0.115906175028E+03   -0.45134E-05   -0.63254E-05    56   0.382E-02
  11 F= -.11614743E+03 E0= -.11614743E+03  d E =-.126055E-02
       N       E                     dE             d eps       ncg     rms          rms(c)
DAV:   1    -0.115908912576E+03   -0.27421E-02   -0.13178E-01    70   0.191E+00    0.832E-02
RMM:   2    -0.115909006077E+03   -0.93501E-04   -0.20134E-03    70   0.225E-01    0.470E-02
RMM:   3    -0.115909055703E+03   -0.49626E-04   -0.31805E-04    70   0.971E-02    0.215E-02
RMM:   4    -0.115909074093E+03   -0.18390E-04   -0.83237E-05    60   0.466E-02    0.990E-03
RMM:   5    -0.115909077628E+03   -0.35356E-05   -0.18932E-05    50   0.214E-02
  12 F= -.11615031E+03 E0= -.11615031E+03  d E =-.287757E-02
       N       E                     dE             d eps       ncg     rms          rms(c)
DAV:   1    -0.115911164582E+03   -0.20905E-02   -0.85093E-02    70   0.153E+00    0.639E-02
RMM:   2    -0.115911227341E+03   -0.62759E-04   -0.12869E-03    70   0.181E-01    0.364E-02
RMM:   3    -0.115911263875E+03   -0.36534E-04   -0.20452E-04    70   0.783E-02    0.158E-02
RMM:   4    -0.115911275156E+03   -0.11281E-04   -0.52094E-05    56   0.374E-02    0.649E-03
RMM:   5    -0.115911278097E+03   -0.29413E-05   -0.11521E-05    46   0.173E-02
  13 F= -.11615250E+03 E0= -.11615250E+03  d E =-.219300E-02
       N       E                     dE             d eps       ncg     rms          rms(c)
DAV:   1    -0.115913285177E+03   -0.20100E-02   -0.91316E-02    70   0.160E+00    0.691E-02
RMM:   2    -0.115913352438E+03   -0.67261E-04   -0.13889E-03    70   0.189E-01    0.384E-02
RMM:   3    -0.115913387553E+03   -0.35115E-04   -0.22013E-04    69   0.812E-02    0.175E-02
RMM:   4    -0.115913400652E+03   -0.13099E-04   -0.56649E-05    57   0.391E-02    0.697E-03
RMM:   5    -0.115913403839E+03   -0.31865E-05   -0.13119E-05    47   0.180E-02
  14 F= -.11615462E+03 E0= -.11615462E+03  d E =-.211753E-02
       N       E                     dE             d eps       ncg     rms          rms(c)
DAV:   1    -0.115916354937E+03   -0.29543E-02   -0.25300E-01    70   0.262E+00    0.111E-01
RMM:   2    -0.115916569253E+03   -0.21432E-03   -0.39518E-03    70   0.312E-01    0.635E-02
RMM:   3    -0.115916644180E+03   -0.74927E-04   -0.61188E-04    70   0.134E-01    0.316E-02
RMM:   4    -0.115916677617E+03   -0.33437E-04   -0.16024E-04    67   0.647E-02    0.144E-02
RMM:   5    -0.115916685480E+03   -0.78631E-05   -0.38405E-05    53   0.302E-02
  15 F= -.11615787E+03 E0= -.11615787E+03  d E =-.325009E-02
       N       E                     dE             d eps       ncg     rms          rms(c)
DAV:   1    -0.115918311572E+03   -0.16340E-02   -0.71086E-02    70   0.142E+00    0.637E-02
RMM:   2    -0.115918358343E+03   -0.46772E-04   -0.11603E-03    70   0.174E-01    0.363E-02
RMM:   3    -0.115918379918E+03   -0.21575E-04   -0.18407E-04    68   0.744E-02    0.176E-02
RMM:   4    -0.115918390401E+03   -0.10483E-04   -0.51277E-05    56   0.378E-02    0.569E-03
RMM:   5    -0.115918393077E+03   -0.26760E-05   -0.12153E-05    47   0.171E-02
  16 F= -.11615958E+03 E0= -.11615958E+03  d E =-.171449E-02
       N       E                     dE             d eps       ncg     rms          rms(c)
DAV:   1    -0.115920626226E+03   -0.22358E-02   -0.15730E-01    70   0.206E+00    0.859E-02
RMM:   2    -0.115920757401E+03   -0.13117E-03   -0.24164E-03    70   0.244E-01    0.490E-02
RMM:   3    -0.115920812442E+03   -0.55041E-04   -0.37199E-04    70   0.104E-01    0.230E-02
RMM:   4    -0.115920833188E+03   -0.20746E-04   -0.95514E-05    60   0.501E-02    0.981E-03
RMM:   5    -0.115920837926E+03   -0.47383E-05   -0.23068E-05    50   0.235E-02
  17 F= -.11616200E+03 E0= -.11616200E+03  d E =-.242117E-02
       N       E                     dE             d eps       ncg     rms          rms(c)
DAV:   1    -0.115923421966E+03   -0.25888E-02   -0.24438E-01    70   0.257E+00    0.104E-01
RMM:   2    -0.115923640819E+03   -0.21885E-03   -0.37394E-03    70   0.304E-01    0.600E-02
RMM:   3    -0.115923722923E+03   -0.82104E-04   -0.56870E-04    70   0.130E-01    0.263E-02
RMM:   4    -0.115923752119E+03   -0.29196E-04   -0.14346E-04    65   0.618E-02    0.100E-02
RMM:   5    -0.115923758796E+03   -0.66770E-05   -0.36300E-05    53   0.289E-02
  18 F= -.11616490E+03 E0= -.11616490E+03  d E =-.290087E-02
       N       E                     dE             d eps       ncg     rms          rms(c)
DAV:   1    -0.115926050723E+03   -0.22986E-02   -0.20611E-01    70   0.235E+00    0.950E-02
RMM:   2    -0.115926233582E+03   -0.18286E-03   -0.31836E-03    70   0.280E-01    0.551E-02
RMM:   3    -0.115926304633E+03   -0.71051E-04   -0.48460E-04    70   0.120E-01    0.243E-02
RMM:   4    -0.115926329495E+03   -0.24862E-04   -0.12319E-04    63   0.573E-02    0.883E-03
RMM:   5    -0.115926336108E+03   -0.66134E-05   -0.31280E-05    53   0.267E-02
  19 F= -.11616746E+03 E0= -.11616746E+03  d E =-.255860E-02
       N       E                     dE             d eps       ncg     rms          rms(c)
DAV:   1    -0.115929234557E+03   -0.29051E-02   -0.42333E-01    70   0.335E+00    0.134E-01
RMM:   2    -0.115929628562E+03   -0.39400E-03   -0.65778E-03    70   0.399E-01    0.786E-02
RMM:   3    -0.115929759146E+03   -0.13058E-03   -0.98791E-04    70   0.170E-01    0.362E-02
RMM:   4    -0.115929807177E+03   -0.48031E-04   -0.25134E-04    70   0.812E-02    0.142E-02
RMM:   5    -0.115929818536E+03   -0.11360E-04   -0.66125E-05    57   0.381E-02    0.680E-03
RMM:   6    -0.115929823648E+03   -0.51114E-05   -0.94146E-06    47   0.172E-02
  20 F= -.11617091E+03 E0= -.11617091E+03  d E =-.344876E-02
       N       E                     dE             d eps       ncg     rms          rms(c)
DAV:   1    -0.115931211300E+03   -0.13928E-02   -0.80754E-02    70   0.147E+00    0.598E-02
RMM:   2    -0.115931281154E+03   -0.69854E-04   -0.13069E-03    70   0.178E-01    0.357E-02
RMM:   3    -0.115931306267E+03   -0.25113E-04   -0.19496E-04    65   0.754E-02    0.170E-02
RMM:   4    -0.115931316647E+03   -0.10380E-04   -0.49809E-05    55   0.365E-02    0.554E-03
RMM:   5    -0.115931319945E+03   -0.32974E-05   -0.12306E-05    47   0.167E-02
  21 F= -.11617241E+03 E0= -.11617241E+03  d E =-.149857E-02
       N       E                     dE             d eps       ncg     rms          rms(c)
DAV:   1    -0.115934131018E+03   -0.28144E-02   -0.47824E-01    70   0.355E+00    0.142E-01
RMM:   2    -0.115934578422E+03   -0.44740E-03   -0.74141E-03    70   0.422E-01    0.829E-02
RMM:   3    -0.115934727923E+03   -0.14950E-03   -0.11068E-03    70   0.179E-01    0.380E-02
RMM:   4    -0.115934779009E+03   -0.51086E-04   -0.28051E-04    70   0.856E-02    0.145E-02
RMM:   5    -0.115934790446E+03   -0.11437E-04   -0.75924E-05    59   0.400E-02    0.701E-03
RMM:   6    -0.115934794788E+03   -0.43422E-05   -0.93198E-06    47   0.175E-02
  22 F= -.11617584E+03 E0= -.11617584E+03  d E =-.343032E-02
       N       E                     dE             d eps       ncg     rms          rms(c)
DAV:   1    -0.115937448722E+03   -0.26583E-02   -0.45934E-01    70   0.347E+00    0.134E-01
RMM:   2    -0.115937890841E+03   -0.44212E-03   -0.70880E-03    70   0.411E-01    0.799E-02
RMM:   3    -0.115938034897E+03   -0.14406E-03   -0.10365E-03    70   0.174E-01    0.340E-02
RMM:   4    -0.115938079840E+03   -0.44943E-04   -0.25521E-04    70   0.819E-02    0.116E-02
RMM:   5    -0.115938091673E+03   -0.11833E-04   -0.69762E-05    59   0.381E-02    0.430E-03
RMM:   6    -0.115938095985E+03   -0.43120E-05   -0.83770E-06    46   0.164E-02
  23 F= -.11617911E+03 E0= -.11617911E+03  d E =-.327230E-02
       N       E                     dE             d eps       ncg     rms          rms(c)
DAV:   1    -0.115939898059E+03   -0.18064E-02   -0.18794E-01    70   0.221E+00    0.854E-02
RMM:   2    -0.115940076378E+03   -0.17832E-03   -0.29383E-03    70   0.264E-01    0.512E-02
RMM:   3    -0.115940138573E+03   -0.62195E-04   -0.42857E-04    70   0.112E-01    0.218E-02
RMM:   4    -0.115940157967E+03   -0.19394E-04   -0.10646E-04    62   0.528E-02    0.720E-03
RMM:   5    -0.115940164238E+03   -0.62704E-05   -0.26343E-05    53   0.240E-02
  24 F= -.11618117E+03 E0= -.11618117E+03  d E =-.205618E-02
       N       E                     dE             d eps       ncg     rms          rms(c)
DAV:   1    -0.115939989879E+03    0.16809E-03   -0.36898E-03    76   0.334E-01    0.199E-02
RMM:   2    -0.115939993637E+03   -0.37581E-05   -0.69478E-05    58   0.432E-02
  25 F= -.11618100E+03 E0= -.11618100E+03  d E =0.168980E-03
       N       E                     dE             d eps       ncg     rms          rms(c)
DAV:   1    -0.115940556932E+03   -0.56705E-03   -0.14400E-02    70   0.609E-01    0.222E-02
RMM:   2    -0.115940573931E+03   -0.16999E-04   -0.22412E-04    65   0.728E-02    0.125E-02
RMM:   3    -0.115940579404E+03   -0.54730E-05   -0.32281E-05    53   0.302E-02
  26 F= -.11618158E+03 E0= -.11618158E+03  d E =-.582574E-03
       N       E                     dE             d eps       ncg     rms          rms(c)
DAV:   1    -0.115943657426E+03   -0.30835E-02   -0.10547E+00    70   0.520E+00    0.200E-01
RMM:   2    -0.115944773372E+03   -0.11159E-02   -0.16746E-02    70   0.627E-01    0.121E-01
RMM:   3    -0.115945048980E+03   -0.27561E-03   -0.23967E-03    70   0.264E-01    0.521E-02
RMM:   4    -0.115945133968E+03   -0.84988E-04   -0.56112E-04    71   0.125E-01    0.183E-02
RMM:   5    -0.115945156842E+03   -0.22874E-04   -0.18808E-04    65   0.601E-02    0.779E-03
RMM:   6    -0.115945160965E+03   -0.41234E-05   -0.17324E-05    48   0.247E-02
  27 F= -.11618617E+03 E0= -.11618617E+03  d E =-.458795E-02
       N       E                     dE             d eps       ncg     rms          rms(c)
DAV:   1    -0.115944494422E+03    0.66242E-03   -0.52661E-02    70   0.118E+00    0.782E-02
RMM:   2    -0.115944505469E+03   -0.11047E-04   -0.12200E-03    70   0.167E-01    0.418E-02
RMM:   3    -0.115944500221E+03    0.52482E-05   -0.18232E-04    64   0.719E-02    0.244E-02
RMM:   4    -0.115944507358E+03   -0.71371E-05   -0.75985E-05    58   0.417E-02
  28 F= -.11618548E+03 E0= -.11618548E+03  d E =0.689429E-03
       N       E                     dE             d eps       ncg     rms          rms(c)
DAV:   1    -0.115945417383E+03   -0.91716E-03   -0.36929E-02    76   0.973E-01    0.444E-02
RMM:   2    -0.115945451076E+03   -0.33693E-04   -0.64398E-04    70   0.123E-01    0.245E-02
RMM:   3    -0.115945459197E+03   -0.81211E-05   -0.94051E-05    57   0.520E-02
  29 F= -.11618644E+03 E0= -.11618644E+03  d E =-.964024E-03
       N       E                     dE             d eps       ncg     rms          rms(c)
DAV:   1    -0.115945979242E+03   -0.52817E-03   -0.15983E-02    73   0.637E-01    0.261E-02
RMM:   2    -0.115945995012E+03   -0.15769E-04   -0.27268E-04    67   0.804E-02    0.168E-02
RMM:   3    -0.115946002030E+03   -0.70184E-05   -0.43337E-05    54   0.348E-02
  30 F= -.11618699E+03 E0= -.11618699E+03  d E =-.544333E-03
       N       E                     dE             d eps       ncg     rms          rms(c)
DAV:   1    -0.115946582395E+03   -0.58738E-03   -0.21283E-02    70   0.739E-01    0.291E-02
RMM:   2    -0.115946602594E+03   -0.20199E-04   -0.35958E-04    69   0.925E-02    0.179E-02
RMM:   3    -0.115946610121E+03   -0.75273E-05   -0.58841E-05    56   0.398E-02
  31 F= -.11618759E+03 E0= -.11618759E+03  d E =-.600513E-03
       N       E                     dE             d eps       ncg     rms          rms(c)
DAV:   1    -0.115945825075E+03    0.77752E-03   -0.78472E+00    70   0.141E+01    0.545E-01
RMM:   2    -0.115955059441E+03   -0.92344E-02   -0.12593E-01    70   0.172E+00    0.322E-01
RMM:   3    -0.115956703237E+03   -0.16438E-02   -0.17809E-02    70   0.716E-01    0.152E-01
RMM:   4    -0.115957221062E+03   -0.51782E-03   -0.41376E-03    70   0.338E-01    0.476E-02
RMM:   5    -0.115957397188E+03   -0.17613E-03   -0.14339E-03    82   0.163E-01    0.245E-02
RMM:   6    -0.115957424109E+03   -0.26921E-04   -0.11930E-04    63   0.641E-02    0.718E-03
RMM:   7    -0.115957446948E+03   -0.22839E-04   -0.42860E-05    51   0.322E-02    0.708E-03
RMM:   8    -0.115957481864E+03   -0.34917E-04   -0.96746E-06    46   0.143E-02    0.301E-03
RMM:   9    -0.115957491733E+03   -0.98683E-05   -0.20799E-06    41   0.683E-03
  32 F= -.11619842E+03 E0= -.11619842E+03  d E =-.108309E-01
       N       E                     dE             d eps       ncg     rms          rms(c)
DAV:   1    -0.115954976918E+03    0.25049E-02   -0.31861E-01    70   0.285E+00    0.110E-01
RMM:   2    -0.115955293920E+03   -0.31700E-03   -0.50247E-03    70   0.344E-01    0.661E-02
RMM:   3    -0.115955399446E+03   -0.10553E-03   -0.71890E-04    70   0.145E-01    0.290E-02
RMM:   4    -0.115955436554E+03   -0.37108E-04   -0.17052E-04    64   0.691E-02    0.888E-03
RMM:   5    -0.115955445306E+03   -0.87519E-05   -0.54148E-05    57   0.324E-02
  33 F= -.11619640E+03 E0= -.11619640E+03  d E =0.201937E-02
       N       E                     dE             d eps       ncg     rms          rms(c)
DAV:   1    -0.115956628265E+03   -0.11917E-02   -0.13915E-01    76   0.187E+00    0.716E-02
RMM:   2    -0.115956763568E+03   -0.13530E-03   -0.21728E-03    70   0.224E-01    0.435E-02
RMM:   3    -0.115956808294E+03   -0.44726E-04   -0.30430E-04    70   0.933E-02    0.197E-02
RMM:   4    -0.115956822492E+03   -0.14198E-04   -0.71415E-05    55   0.441E-02    0.594E-03
RMM:   5    -0.115956824665E+03   -0.21726E-05   -0.19617E-05    49   0.196E-02
  34 F= -.11619776E+03 E0= -.11619776E+03  d E =-.136214E-02
       N       E                     dE             d eps       ncg     rms          rms(c)
DAV:   1    -0.115957047281E+03   -0.22479E-03   -0.64271E-03    76   0.400E-01    0.158E-02
RMM:   2    -0.115957053199E+03   -0.59184E-05   -0.10965E-04    58   0.505E-02    0.955E-03
RMM:   3    -0.115957055259E+03   -0.20598E-05   -0.17346E-05    48   0.214E-02
  35 F= -.11619800E+03 E0= -.11619800E+03  d E =-.233362E-03
       N       E                     dE             d eps       ncg     rms          rms(c)
DAV:   1    -0.115958506935E+03   -0.14537E-02   -0.36559E-01    70   0.301E+00    0.113E-01
RMM:   2    -0.115958878845E+03   -0.37191E-03   -0.57882E-03    70   0.366E-01    0.693E-02
RMM:   3    -0.115958990024E+03   -0.11118E-03   -0.83465E-04    70   0.154E-01    0.298E-02
RMM:   4    -0.115959021789E+03   -0.31765E-04   -0.20771E-04    64   0.726E-02    0.931E-03
RMM:   5    -0.115959028524E+03   -0.67349E-05   -0.53746E-05    56   0.331E-02
  36 F= -.11619995E+03 E0= -.11619995E+03  d E =-.195807E-02
       N       E                     dE             d eps       ncg     rms          rms(c)
DAV:   1    -0.115958894336E+03    0.12745E-03   -0.19877E-03    84   0.235E-01    0.125E-02
RMM:   2    -0.115958897270E+03   -0.29334E-05   -0.40539E-05    53   0.312E-02
  37 F= -.11619982E+03 E0= -.11619982E+03  d E =0.128818E-03
       N       E                     dE             d eps       ncg     rms          rms(c)
DAV:   1    -0.115959207893E+03   -0.31356E-03   -0.10696E-02    70   0.514E-01    0.184E-02
RMM:   2    -0.115959220040E+03   -0.12147E-04   -0.17090E-04    61   0.627E-02    0.109E-02
RMM:   3    -0.115959224150E+03   -0.41096E-05   -0.25444E-05    50   0.257E-02
  38 F= -.11620015E+03 E0= -.11620015E+03  d E =-.328904E-03
       N       E                     dE             d eps       ncg     rms          rms(c)
DAV:   1    -0.115959449189E+03   -0.22915E-03   -0.55603E-03    70   0.374E-01    0.159E-02
RMM:   2    -0.115959453579E+03   -0.43900E-05   -0.97782E-05    57   0.477E-02
  39 F= -.11620038E+03 E0= -.11620038E+03  d E =-.223499E-03
       N       E                     dE             d eps       ncg     rms          rms(c)
DAV:   1    -0.115959902221E+03   -0.45303E-03   -0.24057E-02    70   0.774E-01    0.323E-02
RMM:   2    -0.115959922660E+03   -0.20439E-04   -0.40462E-04    69   0.961E-02    0.203E-02
RMM:   3    -0.115959932719E+03   -0.10059E-04   -0.59485E-05    55   0.409E-02    0.787E-03
RMM:   4    -0.115959935984E+03   -0.32654E-05   -0.14055E-05    47   0.183E-02
  40 F= -.11620086E+03 E0= -.11620086E+03  d E =-.483407E-03
       N       E                     dE             d eps       ncg     rms          rms(c)
DAV:   1    -0.115960483465E+03   -0.55075E-03   -0.39161E-02    70   0.981E-01    0.369E-02
RMM:   2    -0.115960521110E+03   -0.37646E-04   -0.62964E-04    70   0.120E-01    0.229E-02
RMM:   3    -0.115960534780E+03   -0.13669E-04   -0.91324E-05    57   0.505E-02    0.975E-03
RMM:   4    -0.115960539090E+03   -0.43104E-05   -0.22109E-05    52   0.230E-02
  41 F= -.11620146E+03 E0= -.11620146E+03  d E =-.600073E-03
       N       E                     dE             d eps       ncg     rms          rms(c)
DAV:   1    -0.115961405688E+03   -0.87091E-03   -0.26404E+00    70   0.806E+00    0.308E-01
RMM:   2    -0.115964328597E+03   -0.29229E-02   -0.41929E-02    70   0.980E-01    0.185E-01
RMM:   3    -0.115965005411E+03   -0.67681E-03   -0.63276E-03    71   0.410E-01    0.845E-02
RMM:   4    -0.115965183753E+03   -0.17834E-03   -0.11982E-03    70   0.183E-01    0.255E-02
RMM:   5    -0.115965232557E+03   -0.48804E-04   -0.38479E-04    73   0.874E-02    0.119E-02
RMM:   6    -0.115965243297E+03   -0.10740E-04   -0.38902E-05    50   0.362E-02    0.315E-03
RMM:   7    -0.115965252591E+03   -0.92940E-05   -0.13415E-05    47   0.190E-02
  42 F= -.11620615E+03 E0= -.11620615E+03  d E =-.468546E-02
       N       E                     dE             d eps       ncg     rms          rms(c)
DAV:   1    -0.115965738452E+03   -0.49516E-03   -0.32249E-02    76   0.891E-01    0.337E-02
RMM:   2    -0.115965773462E+03   -0.35010E-04   -0.51671E-04    70   0.109E-01    0.205E-02
RMM:   3    -0.115965789280E+03   -0.15818E-04   -0.74814E-05    56   0.458E-02    0.870E-03
RMM:   4    -0.115965797058E+03   -0.77779E-05   -0.18135E-05    50   0.209E-02
  43 F= -.11620669E+03 E0= -.11620669E+03  d E =-.545696E-03
       N       E                     dE             d eps       ncg     rms          rms(c)
DAV:   1    -0.115965827552E+03   -0.38272E-04   -0.12588E-04    78   0.617E-02    0.476E-03
RMM:   2    -0.115965829280E+03   -0.17282E-05   -0.34971E-06    43   0.972E-03
  44 F= -.11620672E+03 E0= -.11620672E+03  d E =-.304713E-04
       N       E                     dE             d eps       ncg     rms          rms(c)
DAV:   1    -0.115966035979E+03   -0.20843E-03   -0.49923E-03    76   0.351E-01    0.135E-02
RMM:   2    -0.115966042189E+03   -0.62103E-05   -0.80552E-05    55   0.431E-02
  45 F= -.11620694E+03 E0= -.11620694E+03  d E =-.213333E-03
       N       E                     dE             d eps       ncg     rms          rms(c)
DAV:   1    -0.115966707797E+03   -0.67182E-03   -0.61003E-02    70   0.123E+00    0.487E-02
RMM:   2    -0.115966764909E+03   -0.57112E-04   -0.99110E-04    70   0.151E-01    0.302E-02
RMM:   3    -0.115966787660E+03   -0.22751E-04   -0.14343E-04    60   0.639E-02    0.120E-02
RMM:   4    -0.115966794140E+03   -0.64800E-05   -0.34681E-05    55   0.290E-02
  46 F= -.11620768E+03 E0= -.11620768E+03  d E =-.749055E-03
       N       E                     dE             d eps       ncg     rms          rms(c)
DAV:   1    -0.115964120276E+03    0.26674E-02   -0.65892E+00    70   0.128E+01    0.493E-01
RMM:   2    -0.115971792105E+03   -0.76718E-02   -0.10570E-01    70   0.156E+00    0.294E-01
RMM:   3    -0.115973280393E+03   -0.14883E-02   -0.15765E-02    71   0.651E-01    0.137E-01
RMM:   4    -0.115973673185E+03   -0.39279E-03   -0.30135E-03    70   0.292E-01    0.402E-02
RMM:   5    -0.115973792726E+03   -0.11954E-03   -0.95333E-04    80   0.139E-01    0.206E-02
RMM:   6    -0.115973817394E+03   -0.24669E-04   -0.99901E-05    58   0.582E-02    0.503E-03
RMM:   7    -0.115973835257E+03   -0.17862E-04   -0.33866E-05    49   0.289E-02    0.580E-03
RMM:   8    -0.115973863817E+03   -0.28561E-04   -0.77565E-06    46   0.132E-02    0.146E-03
RMM:   9    -0.115973876623E+03   -0.12806E-04   -0.20579E-06    41   0.667E-03    0.137E-03
RMM:  10    -0.115973906161E+03   -0.29538E-04   -0.34563E-06    39   0.606E-03    0.197E-03
RMM:  11    -0.115973912583E+03   -0.64222E-05   -0.95350E-07    29   0.390E-03
  47 F= -.11621478E+03 E0= -.11621478E+03  d E =-.709954E-02
       N       E                     dE             d eps       ncg     rms          rms(c)
DAV:   1    -0.115972476730E+03    0.14294E-02   -0.19831E-01    70   0.222E+00    0.843E-02
RMM:   2    -0.115972679387E+03   -0.20266E-03   -0.31377E-03    70   0.269E-01    0.511E-02
RMM:   3    -0.115972743511E+03   -0.64124E-04   -0.44552E-04    70   0.113E-01    0.216E-02
RMM:   4    -0.115972761443E+03   -0.17933E-04   -0.10967E-04    61   0.531E-02    0.669E-03
RMM:   5    -0.115972764607E+03   -0.31637E-05   -0.25967E-05    52   0.239E-02
  48 F= -.11621364E+03 E0= -.11621364E+03  d E =0.114100E-02
       N       E                     dE             d eps       ncg     rms          rms(c)
DAV:   1    -0.115973412946E+03   -0.65150E-03   -0.86457E-02    76   0.146E+00    0.552E-02
RMM:   2    -0.115973500215E+03   -0.87268E-04   -0.13379E-03    70   0.176E-01    0.338E-02
RMM:   3    -0.115973530130E+03   -0.29916E-04   -0.18479E-04    61   0.727E-02    0.141E-02
RMM:   4    -0.115973538158E+03   -0.80278E-05   -0.43362E-05    55   0.329E-02
  49 F= -.11621441E+03 E0= -.11621441E+03  d E =-.769066E-03
       N       E                     dE             d eps       ncg     rms          rms(c)
DAV:   1    -0.115973783434E+03   -0.25330E-03   -0.10778E-02    76   0.520E-01    0.198E-02
RMM:   2    -0.115973794924E+03   -0.11490E-04   -0.17792E-04    62   0.643E-02    0.125E-02
RMM:   3    -0.115973797924E+03   -0.29998E-05   -0.26342E-05    52   0.269E-02
  50 F= -.11621467E+03 E0= -.11621467E+03  d E =-.260856E-03
       N       E                     dE             d eps       ncg     rms          rms(c)
DAV:   1    -0.115974392647E+03   -0.59772E-03   -0.78337E-02    70   0.140E+00    0.528E-02
RMM:   2    -0.115974470964E+03   -0.78316E-04   -0.12549E-03    70   0.171E-01    0.325E-02
RMM:   3    -0.115974497294E+03   -0.26330E-04   -0.19466E-04    63   0.722E-02    0.138E-02
RMM:   4    -0.115974502266E+03   -0.49718E-05   -0.36919E-05    53   0.318E-02
  51 F= -.11621537E+03 E0= -.11621537E+03  d E =-.699665E-03
       N       E                     dE             d eps       ncg     rms          rms(c)
DAV:   1    -0.115974736738E+03   -0.23944E-03   -0.10670E-02    76   0.519E-01    0.198E-02
RMM:   2    -0.115974748290E+03   -0.11551E-04   -0.18126E-04    62   0.649E-02    0.125E-02
RMM:   3    -0.115974751410E+03   -0.31202E-05   -0.28026E-05    52   0.272E-02
  52 F= -.11621562E+03 E0= -.11621562E+03  d E =-.250083E-03
       N       E                     dE             d eps       ncg     rms          rms(c)
DAV:   1    -0.115975105911E+03   -0.35762E-03   -0.25313E-02    70   0.795E-01    0.304E-02
RMM:   2    -0.115975132044E+03   -0.26133E-04   -0.41410E-04    69   0.985E-02    0.188E-02
RMM:   3    -0.115975140131E+03   -0.80872E-05   -0.61772E-05    56   0.416E-02
  53 F= -.11621601E+03 E0= -.11621601E+03  d E =-.389338E-03
       N       E                     dE             d eps       ncg     rms          rms(c)
DAV:   1    -0.115964624387E+03    0.10508E-01   -0.11960E+01    70   0.173E+01    0.690E-01
RMM:   2    -0.115979086194E+03   -0.14462E-01   -0.19530E-01    70   0.213E+00    0.397E-01
RMM:   3    -0.115981649485E+03   -0.25633E-02   -0.29370E-02    71   0.887E-01    0.202E-01
RMM:   4    -0.115982281060E+03   -0.63157E-03   -0.55984E-03    70   0.400E-01    0.633E-02
RMM:   5    -0.115982510010E+03   -0.22895E-03   -0.17309E-03    80   0.190E-01    0.330E-02
RMM:   6    -0.115982559045E+03   -0.49035E-04   -0.20256E-04    67   0.815E-02    0.744E-03
RMM:   7    -0.115982585209E+03   -0.26164E-04   -0.66445E-05    52   0.410E-02    0.105E-02
RMM:   8    -0.115982616255E+03   -0.31046E-04   -0.12080E-05    46   0.172E-02    0.349E-03
RMM:   9    -0.115982647830E+03   -0.31576E-04   -0.47113E-06    44   0.939E-03    0.249E-03
RMM:  10    -0.115982673156E+03   -0.25326E-04   -0.27089E-06    40   0.630E-03    0.269E-03
RMM:  11    -0.115982699603E+03   -0.26447E-04   -0.32222E-06    38   0.556E-03    0.166E-03
RMM:  12    -0.115982709843E+03   -0.10240E-04   -0.11066E-06    28   0.388E-03    0.671E-04
RMM:  13    -0.115982717554E+03   -0.77113E-05   -0.77956E-07    28   0.366E-03
  54 F= -.11622355E+03 E0= -.11622355E+03  d E =-.753697E-02
       N       E                     dE             d eps       ncg     rms          rms(c)
DAV:   1    -0.115970795147E+03    0.11915E-01   -0.49258E+00    70   0.111E+01    0.433E-01
RMM:   2    -0.115976451356E+03   -0.56562E-02   -0.78680E-02    70   0.135E+00    0.254E-01
RMM:   3    -0.115977579726E+03   -0.11284E-02   -0.11776E-02    71   0.565E-01    0.119E-01
RMM:   4    -0.115977913346E+03   -0.33362E-03   -0.22468E-03    70   0.253E-01    0.371E-02
RMM:   5    -0.115978003225E+03   -0.89880E-04   -0.71460E-04    79   0.121E-01    0.173E-02
RMM:   6    -0.115978020342E+03   -0.17117E-04   -0.74381E-05    53   0.504E-02    0.485E-03
RMM:   7    -0.115978032705E+03   -0.12362E-04   -0.26422E-05    49   0.258E-02    0.591E-03
RMM:   8    -0.115978046425E+03   -0.13720E-04   -0.50904E-06    46   0.111E-02    0.184E-03
RMM:   9    -0.115978060608E+03   -0.14183E-04   -0.19458E-06    39   0.632E-03    0.134E-03
RMM:  10    -0.115978073035E+03   -0.12427E-04   -0.13954E-06    34   0.467E-03    0.131E-03
RMM:  11    -0.115978082567E+03   -0.95326E-05   -0.12754E-06    32   0.421E-03
  55 F= -.11621894E+03 E0= -.11621894E+03  d E =0.460594E-02
       N       E                     dE             d eps       ncg     rms          rms(c)
DAV:   1    -0.115978814435E+03   -0.74140E-03   -0.21263E-01    70   0.230E+00    0.862E-02
RMM:   2    -0.115979030677E+03   -0.21624E-03   -0.33265E-03    70   0.278E-01    0.526E-02
RMM:   3    -0.115979098644E+03   -0.67967E-04   -0.47201E-04    70   0.116E-01    0.217E-02
RMM:   4    -0.115979115578E+03   -0.16934E-04   -0.11551E-04    61   0.544E-02    0.660E-03
RMM:   5    -0.115979118617E+03   -0.30390E-05   -0.26848E-05    51   0.246E-02
  56 F= -.11621997E+03 E0= -.11621997E+03  d E =-.103169E-02
       N       E                     dE             d eps       ncg     rms          rms(c)
DAV:   1    -0.115979504877E+03   -0.38930E-03   -0.39864E-02    76   0.998E-01    0.375E-02
RMM:   2    -0.115979546376E+03   -0.41499E-04   -0.64159E-04    70   0.123E-01    0.228E-02
RMM:   3    -0.115979558327E+03   -0.11951E-04   -0.10063E-04    59   0.521E-02    0.957E-03
RMM:   4    -0.115979561240E+03   -0.29134E-05   -0.19321E-05    51   0.230E-02
  57 F= -.11622041E+03 E0= -.11622041E+03  d E =-.440207E-03
       N       E                     dE             d eps       ncg     rms          rms(c)
DAV:   1    -0.115979450435E+03    0.10789E-03   -0.26032E-03    76   0.254E-01    0.966E-03
RMM:   2    -0.115979453664E+03   -0.32288E-05   -0.37920E-05    51   0.299E-02
  58 F= -.11622031E+03 E0= -.11622031E+03  d E =0.106558E-03
       N       E                     dE             d eps       ncg     rms          rms(c)
DAV:   1    -0.115979621221E+03   -0.17079E-03   -0.63121E-03    76   0.394E-01    0.135E-02
RMM:   2    -0.115979628514E+03   -0.72925E-05   -0.92499E-05    58   0.469E-02
  59 F= -.11622048E+03 E0= -.11622048E+03  d E =-.174663E-03
       N       E                     dE             d eps       ncg     rms          rms(c)
DAV:   1    -0.115980406646E+03   -0.78543E-03   -0.25841E-01    70   0.256E+00    0.992E-02
RMM:   2    -0.115980652893E+03   -0.24625E-03   -0.40792E-03    70   0.310E-01    0.611E-02
RMM:   3    -0.115980735605E+03   -0.82712E-04   -0.58718E-04    70   0.131E-01    0.239E-02
RMM:   4    -0.115980756433E+03   -0.20828E-04   -0.14393E-04    61   0.607E-02    0.762E-03
RMM:   5    -0.115980760887E+03   -0.44540E-05   -0.34606E-05    53   0.273E-02
  60 F= -.11622161E+03 E0= -.11622161E+03  d E =-.112306E-02
       N       E                     dE             d eps       ncg     rms          rms(c)
DAV:   1    -0.115980335455E+03    0.42098E-03   -0.30387E-02    70   0.877E-01    0.338E-02
RMM:   2    -0.115980366364E+03   -0.30909E-04   -0.46194E-04    69   0.104E-01    0.207E-02
RMM:   3    -0.115980377490E+03   -0.11126E-04   -0.63488E-05    56   0.428E-02    0.873E-03
RMM:   4    -0.115980382063E+03   -0.45733E-05   -0.14729E-05    47   0.192E-02
  61 F= -.11622123E+03 E0= -.11622123E+03  d E =0.371549E-03
       N       E                     dE             d eps       ncg     rms          rms(c)
DAV:   1    -0.115980670279E+03   -0.29279E-03   -0.19852E-02    76   0.707E-01    0.267E-02
RMM:   2    -0.115980689931E+03   -0.19651E-04   -0.30188E-04    68   0.847E-02    0.160E-02
RMM:   3    -0.115980696029E+03   -0.60983E-05   -0.42555E-05    53   0.351E-02
  62 F= -.11622155E+03 E0= -.11622155E+03  d E =-.311260E-03
       N       E                     dE             d eps       ncg     rms          rms(c)
DAV:   1    -0.115981269652E+03   -0.57972E-03   -0.11805E-01    70   0.173E+00    0.656E-02
RMM:   2    -0.115981388503E+03   -0.11885E-03   -0.18729E-03    70   0.211E-01    0.405E-02
RMM:   3    -0.115981427445E+03   -0.38942E-04   -0.29112E-04    68   0.893E-02    0.165E-02
RMM:   4    -0.115981435064E+03   -0.76195E-05   -0.55433E-05    55   0.398E-02
  63 F= -.11622228E+03 E0= -.11622228E+03  d E =-.737093E-03
       N       E                     dE             d eps       ncg     rms          rms(c)
DAV:   1    -0.115981365671E+03    0.61774E-04   -0.18989E-03    76   0.226E-01    0.132E-02
RMM:   2    -0.115981366702E+03   -0.10314E-05   -0.37187E-05    51   0.299E-02
  64 F= -.11622221E+03 E0= -.11622221E+03  d E =0.736796E-04
       N       E                     dE             d eps       ncg     rms          rms(c)
DAV:   1    -0.115981505939E+03   -0.14027E-03   -0.47405E-03    73   0.346E-01    0.121E-02
RMM:   2    -0.115981512155E+03   -0.62151E-05   -0.74681E-05    57   0.424E-02
  65 F= -.11622236E+03 E0= -.11622236E+03  d E =-.147714E-03
       N       E                     dE             d eps       ncg     rms          rms(c)
DAV:   1    -0.115981662127E+03   -0.15619E-03   -0.52391E-03    70   0.369E-01    0.167E-02
RMM:   2    -0.115981666407E+03   -0.42799E-05   -0.91566E-05    57   0.466E-02
  66 F= -.11622251E+03 E0= -.11622251E+03  d E =-.152114E-03
       N       E                     dE             d eps       ncg     rms          rms(c)
DAV:   1    -0.115982404590E+03   -0.74246E-03   -0.36360E-01    70   0.304E+00    0.117E-01
RMM:   2    -0.115982756399E+03   -0.35181E-03   -0.57170E-03    70   0.369E-01    0.720E-02
RMM:   3    -0.115982872560E+03   -0.11616E-03   -0.82452E-04    70   0.155E-01    0.282E-02
RMM:   4    -0.115982901984E+03   -0.29424E-04   -0.20208E-04    65   0.723E-02    0.904E-03
RMM:   5    -0.115982908548E+03   -0.65636E-05   -0.50948E-05    56   0.329E-02
  67 F= -.11622375E+03 E0= -.11622375E+03  d E =-.124125E-02
       N       E                     dE             d eps       ncg     rms          rms(c)
DAV:   1    -0.115982427757E+03    0.47423E-03   -0.43816E-02    70   0.105E+00    0.404E-02
RMM:   2    -0.115982472572E+03   -0.44815E-04   -0.66724E-04    70   0.125E-01    0.247E-02
RMM:   3    -0.115982488310E+03   -0.15738E-04   -0.91812E-05    59   0.516E-02    0.104E-02
RMM:   4    -0.115982494582E+03   -0.62727E-05   -0.21149E-05    51   0.230E-02
  68 F= -.11622333E+03 E0= -.11622333E+03  d E =0.416489E-03
       N       E                     dE             d eps       ncg     rms          rms(c)
DAV:   1    -0.115982784426E+03   -0.29612E-03   -0.24669E-02    76   0.791E-01    0.298E-02
RMM:   2    -0.115982809133E+03   -0.24707E-04   -0.37474E-04    69   0.948E-02    0.179E-02
RMM:   3    -0.115982816793E+03   -0.76610E-05   -0.52475E-05    55   0.393E-02
  69 F= -.11622365E+03 E0= -.11622365E+03  d E =-.320922E-03
       N       E                     dE             d eps       ncg     rms          rms(c)
DAV:   1    -0.115983144197E+03   -0.33506E-03   -0.37303E-02    70   0.977E-01    0.375E-02
RMM:   2    -0.115983182477E+03   -0.38279E-04   -0.60841E-04    70   0.121E-01    0.234E-02
RMM:   3    -0.115983194816E+03   -0.12339E-04   -0.97539E-05    60   0.515E-02    0.994E-03
RMM:   4    -0.115983197461E+03   -0.26456E-05   -0.18646E-05    51   0.227E-02
  70 F= -.11622404E+03 E0= -.11622404E+03  d E =-.382785E-03
       N       E                     dE             d eps       ncg     rms          rms(c)
DAV:   1    -0.115983520175E+03   -0.32536E-03   -0.33710E-02    70   0.931E-01    0.356E-02
RMM:   2    -0.115983552903E+03   -0.32728E-04   -0.54236E-04    70   0.114E-01    0.220E-02
RMM:   3    -0.115983562863E+03   -0.99591E-05   -0.83783E-05    59   0.480E-02
  71 F= -.11622440E+03 E0= -.11622440E+03  d E =-.357934E-03
       N       E                     dE             d eps       ncg     rms          rms(c)
DAV:   1    -0.115984021850E+03   -0.46895E-03   -0.94920E-02    70   0.156E+00    0.590E-02
RMM:   2    -0.115984116341E+03   -0.94490E-04   -0.15173E-03    70   0.191E-01    0.367E-02
RMM:   3    -0.115984147226E+03   -0.30886E-04   -0.22530E-04    66   0.810E-02    0.149E-02
RMM:   4    -0.115984155232E+03   -0.80060E-05   -0.55931E-05    56   0.377E-02
  72 F= -.11622499E+03 E0= -.11622499E+03  d E =-.592962E-03
       N       E                     dE             d eps       ncg     rms          rms(c)
DAV:   1    -0.115983916228E+03    0.23100E-03   -0.13393E-02    70   0.583E-01    0.220E-02
RMM:   2    -0.115983930379E+03   -0.14151E-04   -0.19876E-04    66   0.693E-02    0.131E-02
RMM:   3    -0.115983935977E+03   -0.55981E-05   -0.27053E-05    51   0.283E-02
  73 F= -.11622477E+03 E0= -.11622477E+03  d E =0.218357E-03
       N       E                     dE             d eps       ncg     rms          rms(c)
DAV:   1    -0.115983987613E+03   -0.57233E-04   -0.68840E-04    70   0.132E-01    0.525E-03
RMM:   2    -0.115983988788E+03   -0.11749E-05   -0.94241E-06    46   0.148E-02
  74 F= -.11622482E+03 E0= -.11622482E+03  d E =-.514711E-04
       N       E                     dE             d eps       ncg     rms          rms(c)
DAV:   1    -0.115982757113E+03    0.12305E-02   -0.30697E+00    70   0.886E+00    0.339E-01
RMM:   2    -0.115986066225E+03   -0.33091E-02   -0.48146E-02    70   0.108E+00    0.204E-01
RMM:   3    -0.115986805617E+03   -0.73939E-03   -0.72490E-03    71   0.449E-01    0.871E-02
RMM:   4    -0.115987018212E+03   -0.21260E-03   -0.13588E-03    70   0.201E-01    0.266E-02
RMM:   5    -0.115987070365E+03   -0.52153E-04   -0.42730E-04    77   0.952E-02    0.112E-02
RMM:   6    -0.115987080008E+03   -0.96427E-05   -0.44994E-05    50   0.397E-02
  75 F= -.11622789E+03 E0= -.11622789E+03  d E =-.306805E-02
       N       E                     dE             d eps       ncg     rms          rms(c)
DAV:   1    -0.115985793827E+03    0.12765E-02   -0.27738E-01    70   0.266E+00    0.101E-01
RMM:   2    -0.115986069127E+03   -0.27530E-03   -0.42743E-03    70   0.320E-01    0.612E-02
RMM:   3    -0.115986180946E+03   -0.11182E-03   -0.64037E-04    71   0.133E-01    0.248E-02
RMM:   4    -0.115986211119E+03   -0.30172E-04   -0.12014E-04    62   0.597E-02    0.756E-03
RMM:   5    -0.115986219899E+03   -0.87803E-05   -0.33185E-05    51   0.280E-02
  76 F= -.11622704E+03 E0= -.11622704E+03  d E =0.852630E-03
       N       E                     dE             d eps       ncg     rms          rms(c)
DAV:   1    -0.115986638971E+03   -0.42785E-03   -0.10670E-01    70   0.165E+00    0.621E-02
RMM:   2    -0.115986739694E+03   -0.10072E-03   -0.16234E-03    70   0.197E-01    0.380E-02
RMM:   3    -0.115986774870E+03   -0.35176E-04   -0.22640E-04    66   0.817E-02    0.151E-02
RMM:   4    -0.115986784306E+03   -0.94356E-05   -0.53301E-05    55   0.371E-02
  77 F= -.11622760E+03 E0= -.11622760E+03  d E =-.559619E-03
       N       E                     dE             d eps       ncg     rms          rms(c)
DAV:   1    -0.115987138658E+03   -0.36379E-03   -0.75851E-02    70   0.140E+00    0.528E-02
RMM:   2    -0.115987211550E+03   -0.72892E-04   -0.11996E-03    70   0.170E-01    0.325E-02
RMM:   3    -0.115987236008E+03   -0.24459E-04   -0.17486E-04    63   0.717E-02    0.129E-02
RMM:   4    -0.115987242874E+03   -0.68659E-05   -0.42454E-05    55   0.326E-02
  78 F= -.11622805E+03 E0= -.11622805E+03  d E =-.454678E-03
       N       E                     dE             d eps       ncg     rms          rms(c)
DAV:   1    -0.115987204038E+03    0.31970E-04   -0.62060E-04    92   0.126E-01    0.527E-03
RMM:   2    -0.115987205178E+03   -0.11396E-05   -0.90056E-06    45   0.147E-02
  79 F= -.11622801E+03 E0= -.11622801E+03  d E =0.386577E-04
       N       E                     dE             d eps       ncg     rms          rms(c)
DAV:   1    -0.115987286765E+03   -0.82727E-04   -0.27239E-03    73   0.264E-01    0.909E-03
RMM:   2    -0.115987290157E+03   -0.33925E-05   -0.41347E-05    51   0.318E-02
  80 F= -.11622810E+03 E0= -.11622810E+03  d E =-.845956E-04
       N       E                     dE             d eps       ncg     rms          rms(c)
DAV:   1    -0.115987385433E+03   -0.98668E-04   -0.36934E-03    70   0.313E-01    0.136E-02
RMM:   2    -0.115987388341E+03   -0.29081E-05   -0.62704E-05    54   0.390E-02
  81 F= -.11622819E+03 E0= -.11622819E+03  d E =-.967371E-04
       N       E                     dE             d eps       ncg     rms          rms(c)
DAV:   1    -0.115987824564E+03   -0.43913E-03   -0.19647E-01    70   0.227E+00    0.872E-02
RMM:   2    -0.115988007185E+03   -0.18262E-03   -0.30683E-03    70   0.274E-01    0.536E-02
RMM:   3    -0.115988070763E+03   -0.63579E-04   -0.44701E-04    70   0.116E-01    0.207E-02
RMM:   4    -0.115988088184E+03   -0.17420E-04   -0.10858E-04    60   0.537E-02    0.679E-03
RMM:   5    -0.115988091739E+03   -0.35547E-05   -0.25004E-05    51   0.243E-02
  82 F= -.11622889E+03 E0= -.11622889E+03  d E =-.693923E-03
       N       E                     dE             d eps       ncg     rms          rms(c)
DAV:   1    -0.115987863864E+03    0.22432E-03   -0.16980E-02    70   0.664E-01    0.253E-02
RMM:   2    -0.115987880405E+03   -0.16541E-04   -0.25152E-04    67   0.782E-02    0.155E-02
RMM:   3    -0.115987887990E+03   -0.75852E-05   -0.34217E-05    51   0.319E-02
  83 F= -.11622869E+03 E0= -.11622869E+03  d E =0.200165E-03
       N       E                     dE             d eps       ncg     rms          rms(c)
DAV:   1    -0.115988051419E+03   -0.17101E-03   -0.12630E-02    70   0.572E-01    0.215E-02
RMM:   2    -0.115988063009E+03   -0.11590E-04   -0.18453E-04    66   0.670E-02    0.126E-02
RMM:   3    -0.115988067119E+03   -0.41099E-05   -0.24721E-05    50   0.273E-02
  84 F= -.11622886E+03 E0= -.11622886E+03  d E =-.176403E-03
       N       E                     dE             d eps       ncg     rms          rms(c)
DAV:   1    -0.115988287207E+03   -0.22420E-03   -0.27671E-02    70   0.853E-01    0.326E-02
RMM:   2    -0.115988313023E+03   -0.25815E-04   -0.43925E-04    70   0.105E-01    0.202E-02
RMM:   3    -0.115988323378E+03   -0.10355E-04   -0.69795E-05    59   0.444E-02    0.794E-03
RMM:   4    -0.115988325702E+03   -0.23234E-05   -0.13023E-05    48   0.193E-02
  85 F= -.11622912E+03 E0= -.11622912E+03  d E =-.255285E-03
       N       E                     dE             d eps       ncg     rms          rms(c)
DAV:   1    -0.115988651631E+03   -0.32825E-03   -0.83378E-02    70   0.148E+00    0.556E-02
RMM:   2    -0.115988729334E+03   -0.77703E-04   -0.12999E-03    70   0.179E-01    0.341E-02
RMM:   3    -0.115988756802E+03   -0.27468E-04   -0.18883E-04    66   0.752E-02    0.135E-02
RMM:   4    -0.115988764158E+03   -0.73564E-05   -0.45313E-05    56   0.344E-02
  86 F= -.11622955E+03 E0= -.11622955E+03  d E =-.430799E-03
       N       E                     dE             d eps       ncg     rms          rms(c)
DAV:   1    -0.115988673355E+03    0.83447E-04   -0.34396E-03    70   0.300E-01    0.113E-02
RMM:   2    -0.115988676897E+03   -0.35414E-05   -0.50049E-05    52   0.353E-02
  87 F= -.11622946E+03 E0= -.11622946E+03  d E =0.860319E-04
       N       E                     dE             d eps       ncg     rms          rms(c)
DAV:   1    -0.115988831844E+03   -0.15849E-03   -0.13068E-02    70   0.581E-01    0.202E-02
RMM:   2    -0.115988845417E+03   -0.13572E-04   -0.19206E-04    67   0.694E-02    0.119E-02
RMM:   3    -0.115988849614E+03   -0.41975E-05   -0.28648E-05    52   0.286E-02
  88 F= -.11622963E+03 E0= -.11622963E+03  d E =-.170633E-03
       N       E                     dE             d eps       ncg     rms          rms(c)
DAV:   1    -0.115988910425E+03   -0.65008E-04   -0.16502E-03    76   0.210E-01    0.838E-03
RMM:   2    -0.115988912135E+03   -0.17104E-05   -0.28830E-05    51   0.270E-02
  89 F= -.11622970E+03 E0= -.11622970E+03  d E =-.605130E-04
       N       E                     dE             d eps       ncg     rms          rms(c)
DAV:   1    -0.115989098660E+03   -0.18824E-03   -0.20513E-02    70   0.737E-01    0.292E-02
RMM:   2    -0.115989116135E+03   -0.17475E-04   -0.32666E-04    69   0.899E-02    0.181E-02
RMM:   3    -0.115989123918E+03   -0.77821E-05   -0.48199E-05    55   0.380E-02
  90 F= -.11622990E+03 E0= -.11622990E+03  d E =-.208564E-03
       N       E                     dE             d eps       ncg     rms          rms(c)
DAV:   1    -0.115989098360E+03    0.17775E-04   -0.38721E-04    73   0.103E-01    0.503E-03
RMM:   2    -0.115989099006E+03   -0.64579E-06   -0.56340E-06    41   0.117E-02
  91 F= -.11622988E+03 E0= -.11622988E+03  d E =0.243810E-04
       N       E                     dE             d eps       ncg     rms          rms(c)
DAV:   1    -0.115982766313E+03    0.63320E-02   -0.69308E+00    70   0.135E+01    0.535E-01
RMM:   2    -0.115990581032E+03   -0.78147E-02   -0.10915E-01    70   0.165E+00    0.311E-01
RMM:   3    -0.115991984890E+03   -0.14039E-02   -0.16555E-02    71   0.688E-01    0.144E-01
RMM:   4    -0.115992376111E+03   -0.39122E-03   -0.31232E-03    70   0.308E-01    0.473E-02
RMM:   5    -0.115992504904E+03   -0.12879E-03   -0.95410E-04    80   0.146E-01    0.222E-02
RMM:   6    -0.115992528933E+03   -0.24029E-04   -0.10698E-04    61   0.619E-02    0.602E-03
RMM:   7    -0.115992544692E+03   -0.15759E-04   -0.37473E-05    51   0.319E-02    0.773E-03
RMM:   8    -0.115992564663E+03   -0.19971E-04   -0.76592E-06    46   0.139E-02    0.149E-03
RMM:   9    -0.115992577280E+03   -0.12617E-04   -0.22258E-06    43   0.714E-03    0.920E-04
RMM:  10    -0.115992594528E+03   -0.17249E-04   -0.15766E-06    35   0.512E-03    0.194E-03
RMM:  11    -0.115992604864E+03   -0.10336E-04   -0.96520E-07    30   0.407E-03    0.123E-03
RMM:  12    -0.115992615898E+03   -0.11034E-04   -0.12015E-06    34   0.398E-03    0.244E-04
RMM:  13    -0.115992617791E+03   -0.18928E-05   -0.17251E-07    23   0.298E-03
  92 F= -.11623332E+03 E0= -.11623332E+03  d E =-.344178E-02
       N       E                     dE             d eps       ncg     rms          rms(c)
DAV:   1    -0.115980223650E+03    0.12392E-01   -0.64105E+00    70   0.130E+01    0.507E-01
RMM:   2    -0.115987329805E+03   -0.71062E-02   -0.10021E-01    70   0.158E+00    0.299E-01
RMM:   3    -0.115988571060E+03   -0.12413E-02   -0.14361E-02    70   0.659E-01    0.131E-01
RMM:   4    -0.115989036546E+03   -0.46549E-03   -0.34635E-03    71   0.307E-01    0.433E-02
RMM:   5    -0.115989154447E+03   -0.11790E-03   -0.89630E-04    79   0.142E-01    0.198E-02
RMM:   6    -0.115989175325E+03   -0.20878E-04   -0.10374E-04    60   0.592E-02    0.584E-03
RMM:   7    -0.115989190308E+03   -0.14982E-04   -0.33653E-05    50   0.301E-02    0.653E-03
RMM:   8    -0.115989203407E+03   -0.13099E-04   -0.63732E-06    45   0.130E-02    0.270E-03
RMM:   9    -0.115989218140E+03   -0.14733E-04   -0.23321E-06    44   0.700E-03    0.848E-04
RMM:  10    -0.115989230919E+03   -0.12779E-04   -0.12583E-06    33   0.474E-03    0.818E-04
RMM:  11    -0.115989242327E+03   -0.11408E-04   -0.14726E-06    31   0.440E-03    0.117E-03
RMM:  12    -0.115989247487E+03   -0.51604E-05   -0.76164E-07    29   0.378E-03
  93 F= -.11623003E+03 E0= -.11623003E+03  d E =0.329610E-02
       N       E                     dE             d eps       ncg     rms          rms(c)
DAV:   1    -0.115989344454E+03   -0.10213E-03   -0.49619E-03    70   0.361E-01    0.138E-02
RMM:   2    -0.115989349437E+03   -0.49836E-05   -0.76385E-05    56   0.434E-02
  94 F= -.11623013E+03 E0= -.11623013E+03  d E =-.100629E-03
       N       E                     dE             d eps       ncg     rms          rms(c)
DAV:   1    -0.115989447054E+03   -0.10260E-03   -0.47569E-03    76   0.358E-01    0.160E-02
RMM:   2    -0.115989450751E+03   -0.36975E-05   -0.81497E-05    56   0.447E-02
  95 F= -.11623022E+03 E0= -.11623022E+03  d E =-.988650E-04
       N       E                     dE             d eps       ncg     rms          rms(c)
DAV:   1    -0.115988761764E+03    0.68529E-03   -0.18546E+00    70   0.700E+00    0.271E-01
RMM:   2    -0.115990674712E+03   -0.19129E-02   -0.28771E-02    70   0.848E-01    0.163E-01
RMM:   3    -0.115991101335E+03   -0.42662E-03   -0.41723E-03    70   0.356E-01    0.667E-02
RMM:   4    -0.115991260668E+03   -0.15933E-03   -0.10049E-03    71   0.165E-01    0.225E-02
RMM:   5    -0.115991293683E+03   -0.33015E-04   -0.26107E-04    73   0.763E-02    0.898E-03
RMM:   6    -0.115991298941E+03   -0.52577E-05   -0.29541E-05    50   0.317E-02
  96 F= -.11623203E+03 E0= -.11623203E+03  d E =-.180989E-02
       N       E                     dE             d eps       ncg     rms          rms(c)
DAV:   1    -0.115991106361E+03    0.18732E-03   -0.17647E-02    76   0.679E-01    0.263E-02
RMM:   2    -0.115991125641E+03   -0.19279E-04   -0.26225E-04    68   0.807E-02    0.159E-02
RMM:   3    -0.115991137995E+03   -0.12354E-04   -0.37124E-05    52   0.333E-02    0.598E-03
RMM:   4    -0.115991144056E+03   -0.60612E-05   -0.79575E-06    45   0.147E-02
  97 F= -.11623188E+03 E0= -.11623188E+03  d E =0.150641E-03
       N       E                     dE             d eps       ncg     rms          rms(c)
DAV:   1    -0.115991286826E+03   -0.14883E-03   -0.14429E-02    76   0.617E-01    0.234E-02
RMM:   2    -0.115991299482E+03   -0.12656E-04   -0.21752E-04    67   0.741E-02    0.141E-02
RMM:   3    -0.115991306425E+03   -0.69433E-05   -0.31376E-05    52   0.308E-02
  98 F= -.11623204E+03 E0= -.11623204E+03  d E =-.158637E-03
       N       E                     dE             d eps       ncg     rms          rms(c)
DAV:   1    -0.115991524849E+03   -0.22537E-03   -0.47154E-02    70   0.112E+00    0.428E-02
RMM:   2    -0.115991564055E+03   -0.39205E-04   -0.74262E-04    70   0.137E-01    0.264E-02
RMM:   3    -0.115991585166E+03   -0.21111E-04   -0.11215E-04    59   0.583E-02    0.103E-02
RMM:   4    -0.115991590553E+03   -0.53874E-05   -0.26493E-05    52   0.265E-02
  99 F= -.11623232E+03 E0= -.11623232E+03  d E =-.277824E-03
       N       E                     dE             d eps       ncg     rms          rms(c)
DAV:   1    -0.115991463797E+03    0.12137E-03   -0.85002E-03    70   0.474E-01    0.181E-02
RMM:   2    -0.115991471330E+03   -0.75331E-05   -0.12379E-04    63   0.561E-02    0.109E-02
RMM:   3    -0.115991475761E+03   -0.44303E-05   -0.17119E-05    48   0.228E-02
 100 F= -.11623221E+03 E0= -.11623221E+03  d E =0.112889E-03
       N       E                     dE             d eps       ncg     rms          rms(c)
DAV:   1    -0.115991584319E+03   -0.11299E-03   -0.81527E-03    76   0.465E-01    0.175E-02
RMM:   2    -0.115991591033E+03   -0.67147E-05   -0.11936E-04    62   0.546E-02    0.103E-02
RMM:   3    -0.115991594382E+03   -0.33482E-05   -0.16290E-05    48   0.221E-02
 101 F= -.11623232E+03 E0= -.11623232E+03  d E =-.115821E-03
       N       E                     dE             d eps       ncg     rms          rms(c)
DAV:   1    -0.115991894361E+03   -0.30333E-03   -0.19296E-01    70   0.228E+00    0.869E-02
RMM:   2    -0.115992062648E+03   -0.16829E-03   -0.29692E-03    70   0.275E-01    0.529E-02
RMM:   3    -0.115992129236E+03   -0.66588E-04   -0.43615E-04    70   0.116E-01    0.205E-02
RMM:   4    -0.115992149564E+03   -0.20328E-04   -0.10447E-04    61   0.538E-02    0.686E-03
RMM:   5    -0.115992152603E+03   -0.30390E-05   -0.24269E-05    50   0.244E-02
 102 F= -.11623287E+03 E0= -.11623287E+03  d E =-.543729E-03
       N       E                     dE             d eps       ncg     rms          rms(c)
DAV:   1    -0.115991416580E+03    0.73298E-03   -0.16413E-01    70   0.210E+00    0.795E-02
RMM:   2    -0.115991557713E+03   -0.14113E-03   -0.24662E-03    70   0.250E-01    0.484E-02
RMM:   3    -0.115991619425E+03   -0.61712E-04   -0.35059E-04    70   0.104E-01    0.185E-02
RMM:   4    -0.115991637278E+03   -0.17853E-04   -0.81796E-05    59   0.477E-02    0.605E-03
RMM:   5    -0.115991640223E+03   -0.29444E-05   -0.17682E-05    49   0.210E-02
 103 F= -.11623237E+03 E0= -.11623237E+03  d E =0.498277E-03
       N       E                     dE             d eps       ncg     rms          rms(c)
DAV:   1    -0.115991688045E+03   -0.50767E-04   -0.13653E-03    78   0.190E-01    0.744E-03
RMM:   2    -0.115991689121E+03   -0.10754E-05   -0.19023E-05    47   0.215E-02
 104 F= -.11623242E+03 E0= -.11623242E+03  d E =-.468267E-04
       N       E                     dE             d eps       ncg     rms          rms(c)
DAV:   1    -0.115991719713E+03   -0.31668E-04   -0.58785E-04    84   0.128E-01    0.640E-03
RMM:   2    -0.115991720177E+03   -0.46466E-06   -0.10464E-05    44   0.161E-02
 105 F= -.11623245E+03 E0= -.11623245E+03  d E =-.313961E-04
       N       E                     dE             d eps       ncg     rms          rms(c)
DAV:   1    -0.115991716626E+03    0.30871E-05   -0.13792E-05    76   0.194E-02    0.124E-03
RMM:   2    -0.115991716740E+03   -0.11412E-06   -0.23503E-07    20   0.382E-03
 106 F= -.11623244E+03 E0= -.11623244E+03  d E =0.331726E-05
       N       E                     dE             d eps       ncg     rms          rms(c)
DAV:   1    -0.115991784657E+03   -0.68032E-04   -0.29170E-03    70   0.285E-01    0.113E-02
RMM:   2    -0.115991786835E+03   -0.21777E-05   -0.42981E-05    53   0.338E-02
 107 F= -.11623251E+03 E0= -.11623251E+03  d E =-.666130E-04
       N       E                     dE             d eps       ncg     rms          rms(c)
DAV:   1    -0.115991837839E+03   -0.53181E-04   -0.16406E-03    76   0.219E-01    0.107E-02
RMM:   2    -0.115991838639E+03   -0.80088E-06   -0.26835E-05    51   0.269E-02
 108 F= -.11623256E+03 E0= -.11623256E+03  d E =-.498544E-04
       N       E                     dE             d eps       ncg     rms          rms(c)
DAV:   1    -0.115991993399E+03   -0.15556E-03   -0.20768E-02    70   0.772E-01    0.315E-02
RMM:   2    -0.115992006372E+03   -0.12973E-04   -0.30237E-04    70   0.912E-02    0.194E-02
RMM:   3    -0.115992015711E+03   -0.93384E-05   -0.47458E-05    58   0.391E-02
 109 F= -.11623273E+03 E0= -.11623273E+03  d E =-.168448E-03
       N       E                     dE             d eps       ncg     rms          rms(c)
DAV:   1    -0.115969069999E+03    0.22936E-01   -0.13315E+01    70   0.195E+01    0.817E-01
RMM:   2    -0.115982441506E+03   -0.13372E-01   -0.19683E-01    70   0.234E+00    0.468E-01
RMM:   3    -0.115984377203E+03   -0.19357E-02   -0.29269E-02    70   0.976E-01    0.205E-01
RMM:   4    -0.115985220902E+03   -0.84370E-03   -0.69888E-03    71   0.457E-01    0.769E-02
RMM:   5    -0.115985450902E+03   -0.23000E-03   -0.18171E-03    78   0.212E-01    0.382E-02
RMM:   6    -0.115985496900E+03   -0.45998E-04   -0.23617E-04    71   0.919E-02    0.968E-03
RMM:   7    -0.115985520427E+03   -0.23527E-04   -0.79977E-05    55   0.468E-02    0.152E-02
RMM:   8    -0.115985525173E+03   -0.47455E-05   -0.79769E-06    45   0.155E-02
 110 F= -.11622644E+03 E0= -.11622644E+03  d E =0.629306E-02
       N       E                     dE             d eps       ncg     rms          rms(c)
DAV:   1    -0.115986150715E+03   -0.63029E-03   -0.93254E-02    76   0.166E+00    0.929E-02
RMM:   2    -0.115986228267E+03   -0.77553E-04   -0.18360E-03    70   0.222E-01    0.508E-02
RMM:   3    -0.115986242025E+03   -0.13758E-04   -0.27595E-04    70   0.938E-02    0.244E-02
RMM:   4    -0.115986263883E+03   -0.21858E-04   -0.10515E-04    67   0.528E-02    0.877E-03
RMM:   5    -0.115986270317E+03   -0.64342E-05   -0.17584E-05    48   0.216E-02
 111 F= -.11622720E+03 E0= -.11622720E+03  d E =-.763573E-03
       N       E                     dE             d eps       ncg     rms          rms(c)
DAV:   1    -0.115986558323E+03   -0.29444E-03   -0.82055E-03    81   0.485E-01    0.424E-02
RMM:   2    -0.115986555610E+03    0.27133E-05   -0.23928E-04    65   0.781E-02    0.213E-02
RMM:   3    -0.115986552100E+03    0.35107E-05   -0.35181E-05    54   0.328E-02
 112 F= -.11622747E+03 E0= -.11622747E+03  d E =-.267781E-03
       N       E                     dE             d eps       ncg     rms          rms(c)
DAV:   1    -0.115986718722E+03   -0.16311E-03   -0.26291E-03    76   0.287E-01    0.140E-02
RMM:   2    -0.115986721645E+03   -0.29233E-05   -0.40645E-05    53   0.348E-02
 113 F= -.11622764E+03 E0= -.11622764E+03  d E =-.171291E-03
       N       E                     dE             d eps       ncg     rms          rms(c)
DAV:   1    -0.115986953523E+03   -0.23480E-03   -0.91679E-03    70   0.527E-01    0.292E-02
RMM:   2    -0.115986958166E+03   -0.46428E-05   -0.15416E-04    67   0.649E-02    0.166E-02
RMM:   3    -0.115986961236E+03   -0.30693E-05   -0.27323E-05    51   0.282E-02
 114 F= -.11622789E+03 E0= -.11622789E+03  d E =-.250053E-03
       N       E                     dE             d eps       ncg     rms          rms(c)
DAV:   1    -0.115987244894E+03   -0.28673E-03   -0.13345E-02    70   0.634E-01    0.304E-02
RMM:   2    -0.115987254083E+03   -0.91890E-05   -0.21159E-04    70   0.771E-02    0.176E-02
RMM:   3    -0.115987258065E+03   -0.39820E-05   -0.34811E-05    53   0.325E-02
 115 F= -.11622818E+03 E0= -.11622818E+03  d E =-.294202E-03
       N       E                     dE             d eps       ncg     rms          rms(c)
DAV:   1    -0.115987467452E+03   -0.21337E-03   -0.10689E-02    70   0.557E-01    0.242E-02
RMM:   2    -0.115987476080E+03   -0.86282E-05   -0.16144E-04    68   0.662E-02    0.141E-02
RMM:   3    -0.115987480137E+03   -0.40575E-05   -0.27578E-05    52   0.287E-02
 116 F= -.11622841E+03 E0= -.11622841E+03  d E =-.222857E-03
       N       E                     dE             d eps       ncg     rms          rms(c)
DAV:   1    -0.115987598772E+03   -0.12269E-03   -0.39640E-03    76   0.333E-01    0.138E-02
RMM:   2    -0.115987602296E+03   -0.35244E-05   -0.65761E-05    54   0.416E-02
 117 F= -.11622853E+03 E0= -.11622853E+03  d E =-.120295E-03
       N       E                     dE             d eps       ncg     rms          rms(c)
DAV:   1    -0.115987764348E+03   -0.16558E-03   -0.87231E-03    76   0.496E-01    0.216E-02
RMM:   2    -0.115987770799E+03   -0.64503E-05   -0.14130E-04    65   0.604E-02    0.134E-02
RMM:   3    -0.115987774196E+03   -0.33968E-05   -0.22083E-05    51   0.258E-02
 118 F= -.11622870E+03 E0= -.11622870E+03  d E =-.171042E-03
       N       E                     dE             d eps       ncg     rms          rms(c)
DAV:   1    -0.115987929308E+03   -0.15851E-03   -0.97290E-03    76   0.513E-01    0.203E-02
RMM:   2    -0.115987938221E+03   -0.89125E-05   -0.15646E-04    65   0.632E-02    0.127E-02
RMM:   3    -0.115987941827E+03   -0.36068E-05   -0.25435E-05    52   0.269E-02
 119 F= -.11622886E+03 E0= -.11622886E+03  d E =-.164130E-03
       N       E                     dE             d eps       ncg     rms          rms(c)
DAV:   1    -0.115988042620E+03   -0.10440E-03   -0.45403E-03    76   0.350E-01    0.140E-02
RMM:   2    -0.115988047039E+03   -0.44191E-05   -0.76413E-05    57   0.442E-02
 120 F= -.11622897E+03 E0= -.11622897E+03  d E =-.104940E-03
       N       E                     dE             d eps       ncg     rms          rms(c)
DAV:   1    -0.115988268319E+03   -0.22570E-03   -0.26984E-02    70   0.853E-01    0.350E-02
RMM:   2    -0.115988290412E+03   -0.22093E-04   -0.43017E-04    70   0.104E-01    0.219E-02
RMM:   3    -0.115988300350E+03   -0.99389E-05   -0.64611E-05    59   0.444E-02
 121 F= -.11622921E+03 E0= -.11622921E+03  d E =-.247559E-03
       N       E                     dE             d eps       ncg     rms          rms(c)
DAV:   1    -0.115988419124E+03   -0.12871E-03   -0.82528E-03    70   0.469E-01    0.182E-02
RMM:   2    -0.115988427658E+03   -0.85343E-05   -0.14157E-04    63   0.600E-02    0.117E-02
RMM:   3    -0.115988431392E+03   -0.37339E-05   -0.24071E-05    51   0.257E-02
 122 F= -.11622934E+03 E0= -.11622934E+03  d E =-.127463E-03
       N       E                     dE             d eps       ncg     rms          rms(c)
DAV:   1    -0.115988599675E+03   -0.17202E-03   -0.19211E-02    70   0.715E-01    0.271E-02
RMM:   2    -0.115988617818E+03   -0.18143E-04   -0.30559E-04    69   0.880E-02    0.169E-02
RMM:   3    -0.115988624822E+03   -0.70043E-05   -0.46740E-05    55   0.375E-02
 123 F= -.11622953E+03 E0= -.11622953E+03  d E =-.187962E-03
       N       E                     dE             d eps       ncg     rms          rms(c)
DAV:   1    -0.115988869423E+03   -0.25161E-03   -0.61875E-02    70   0.128E+00    0.487E-02
RMM:   2    -0.115988927743E+03   -0.58320E-04   -0.98226E-04    70   0.158E-01    0.302E-02
RMM:   3    -0.115988949491E+03   -0.21749E-04   -0.14836E-04    62   0.669E-02    0.116E-02
RMM:   4    -0.115988955358E+03   -0.58663E-05   -0.35320E-05    52   0.307E-02
 124 F= -.11622985E+03 E0= -.11622985E+03  d E =-.318133E-03
       N       E                     dE             d eps       ncg     rms          rms(c)
DAV:   1    -0.115988989175E+03   -0.39684E-04   -0.12098E-03    76   0.182E-01    0.762E-03
RMM:   2    -0.115988990868E+03   -0.16929E-05   -0.23874E-05    51   0.244E-02
 125 F= -.11622988E+03 E0= -.11622988E+03  d E =-.349997E-04
       N       E                     dE             d eps       ncg     rms          rms(c)
DAV:   1    -0.115989019570E+03   -0.30395E-04   -0.53825E-04    76   0.123E-01    0.664E-03
RMM:   2    -0.115989020359E+03   -0.78905E-06   -0.12041E-05    46   0.172E-02
 126 F= -.11622991E+03 E0= -.11622991E+03  d E =-.266379E-04
       N       E                     dE             d eps       ncg     rms          rms(c)
DAV:   1    -0.115989057565E+03   -0.37995E-04   -0.11129E-03    73   0.173E-01    0.776E-03
RMM:   2    -0.115989058703E+03   -0.11383E-05   -0.19210E-05    47   0.217E-02
 127 F= -.11622995E+03 E0= -.11622995E+03  d E =-.366881E-04
       N       E                     dE             d eps       ncg     rms          rms(c)
DAV:   1    -0.115989275744E+03   -0.21818E-03   -0.92282E-02    70   0.157E+00    0.615E-02
RMM:   2    -0.115989355984E+03   -0.80241E-04   -0.14458E-03    70   0.190E-01    0.367E-02
RMM:   3    -0.115989391163E+03   -0.35178E-04   -0.21248E-04    70   0.804E-02    0.153E-02
RMM:   4    -0.115989400143E+03   -0.89802E-05   -0.50854E-05    55   0.374E-02
 128 F= -.11623027E+03 E0= -.11623027E+03  d E =-.322748E-03
       N       E                     dE             d eps       ncg     rms          rms(c)
DAV:   1    -0.115989486556E+03   -0.95393E-04   -0.69245E-03    70   0.432E-01    0.169E-02
RMM:   2    -0.115989492946E+03   -0.63897E-05   -0.11653E-04    61   0.541E-02    0.105E-02
RMM:   3    -0.115989495781E+03   -0.28352E-05   -0.17969E-05    50   0.228E-02
 129 F= -.11623036E+03 E0= -.11623036E+03  d E =-.885660E-04
       N       E                     dE             d eps       ncg     rms          rms(c)
DAV:   1    -0.115989691650E+03   -0.19870E-03   -0.24028E-01    70   0.253E+00    0.977E-02
RMM:   2    -0.115989911206E+03   -0.21956E-03   -0.37578E-03    70   0.308E-01    0.582E-02
RMM:   3    -0.115989994457E+03   -0.83251E-04   -0.55394E-04    70   0.130E-01    0.247E-02
RMM:   4    -0.115990019492E+03   -0.25034E-04   -0.13240E-04    62   0.601E-02    0.870E-03
RMM:   5    -0.115990024123E+03   -0.46317E-05   -0.30466E-05    51   0.273E-02
 130 F= -.11623086E+03 E0= -.11623086E+03  d E =-.500048E-03
       N       E                     dE             d eps       ncg     rms          rms(c)
DAV:   1    -0.115990099591E+03   -0.80099E-04   -0.40802E-03    76   0.331E-01    0.126E-02
RMM:   2    -0.115990104038E+03   -0.44470E-05   -0.69424E-05    56   0.422E-02
 131 F= -.11623093E+03 E0= -.11623093E+03  d E =-.772593E-04
       N       E                     dE             d eps       ncg     rms          rms(c)
DAV:   1    -0.115990156222E+03   -0.56632E-04   -0.11842E-03    73   0.183E-01    0.943E-03
RMM:   2    -0.115990157324E+03   -0.11019E-05   -0.22507E-05    49   0.238E-02
 132 F= -.11623099E+03 E0= -.11623099E+03  d E =-.516380E-04
       N       E                     dE             d eps       ncg     rms          rms(c)
DAV:   1    -0.115990467460E+03   -0.31124E-03   -0.21078E-01    70   0.238E+00    0.915E-02
RMM:   2    -0.115990648569E+03   -0.18111E-03   -0.32378E-03    70   0.287E-01    0.557E-02
RMM:   3    -0.115990723106E+03   -0.74537E-04   -0.47465E-04    70   0.121E-01    0.213E-02
RMM:   4    -0.115990744983E+03   -0.21877E-04   -0.11418E-04    61   0.561E-02    0.722E-03
RMM:   5    -0.115990749152E+03   -0.41683E-05   -0.26342E-05    51   0.255E-02
 133 F= -.11623156E+03 E0= -.11623156E+03  d E =-.570983E-03
       N       E                     dE             d eps       ncg     rms          rms(c)
DAV:   1    -0.115990982183E+03   -0.23720E-03   -0.59232E-02    70   0.126E+00    0.480E-02
RMM:   2    -0.115991030372E+03   -0.48190E-04   -0.92492E-04    70   0.154E-01    0.292E-02
RMM:   3    -0.115991055758E+03   -0.25386E-04   -0.13936E-04    63   0.654E-02    0.113E-02
RMM:   4    -0.115991062577E+03   -0.68185E-05   -0.33246E-05    52   0.301E-02
 134 F= -.11623186E+03 E0= -.11623186E+03  d E =-.303067E-03
       N       E                     dE             d eps       ncg     rms          rms(c)
DAV:   1    -0.115990922436E+03    0.13332E-03   -0.11496E-02    70   0.553E-01    0.210E-02
RMM:   2    -0.115990933024E+03   -0.10588E-04   -0.16740E-04    67   0.654E-02    0.126E-02
RMM:   3    -0.115990939065E+03   -0.60404E-05   -0.23484E-05    49   0.269E-02
 135 F= -.11623174E+03 E0= -.11623174E+03  d E =0.119303E-03
       N       E                     dE             d eps       ncg     rms          rms(c)
DAV:   1    -0.115991030044E+03   -0.97020E-04   -0.48204E-03    73   0.359E-01    0.136E-02
RMM:   2    -0.115991034340E+03   -0.42960E-05   -0.68446E-05    55   0.415E-02
 136 F= -.11623183E+03 E0= -.11623183E+03  d E =-.918710E-04
       N       E                     dE             d eps       ncg     rms          rms(c)
DAV:   1    -0.115991275048E+03   -0.24500E-03   -0.50717E-02    70   0.118E+00    0.473E-02
RMM:   2    -0.115991310230E+03   -0.35183E-04   -0.78722E-04    70   0.142E-01    0.291E-02
RMM:   3    -0.115991334340E+03   -0.24110E-04   -0.11780E-04    63   0.607E-02    0.102E-02
RMM:   4    -0.115991339424E+03   -0.50834E-05   -0.27033E-05    52   0.275E-02
 137 F= -.11623213E+03 E0= -.11623213E+03  d E =-.294869E-03
       N       E                     dE             d eps       ncg     rms          rms(c)
DAV:   1    -0.115991267511E+03    0.66829E-04   -0.33127E-03    70   0.299E-01    0.116E-02
RMM:   2    -0.115991270477E+03   -0.29653E-05   -0.46709E-05    51   0.348E-02
 138 F= -.11623206E+03 E0= -.11623206E+03  d E =0.678391E-04
       N       E                     dE             d eps       ncg     rms          rms(c)
DAV:   1    -0.115991357897E+03   -0.90385E-04   -0.45266E-03    70   0.348E-01    0.117E-02
RMM:   2    -0.115991362809E+03   -0.49127E-05   -0.63142E-05    55   0.409E-02
 139 F= -.11623215E+03 E0= -.11623215E+03  d E =-.891078E-04
       N       E                     dE             d eps       ncg     rms          rms(c)
DAV:   1    -0.115991549421E+03   -0.19152E-03   -0.23227E-02    70   0.804E-01    0.332E-02
RMM:   2    -0.115991563803E+03   -0.14382E-04   -0.36330E-04    70   0.973E-02    0.205E-02
RMM:   3    -0.115991575484E+03   -0.11681E-04   -0.55175E-05    59   0.416E-02    0.680E-03
RMM:   4    -0.115991577822E+03   -0.23382E-05   -0.12217E-05    47   0.183E-02
 140 F= -.11623236E+03 E0= -.11623236E+03  d E =-.206913E-03
       N       E                     dE             d eps       ncg     rms          rms(c)
DAV:   1    -0.115991890520E+03   -0.31504E-03   -0.10473E-01    70   0.170E+00    0.659E-02
RMM:   2    -0.115991972164E+03   -0.81644E-04   -0.15781E-03    70   0.204E-01    0.399E-02
RMM:   3    -0.115992011868E+03   -0.39704E-04   -0.23413E-04    70   0.858E-02    0.148E-02
RMM:   4    -0.115992022515E+03   -0.10647E-04   -0.56013E-05    58   0.396E-02    0.518E-03
RMM:   5    -0.115992024361E+03   -0.18463E-05   -0.12138E-05    47   0.175E-02
 141 F= -.11623278E+03 E0= -.11623278E+03  d E =-.427941E-03
       N       E                     dE             d eps       ncg     rms          rms(c)
DAV:   1    -0.115992109863E+03   -0.87348E-04   -0.41624E-03    70   0.340E-01    0.132E-02
RMM:   2    -0.115992113507E+03   -0.36434E-05   -0.67623E-05    56   0.424E-02
 142 F= -.11623287E+03 E0= -.11623287E+03  d E =-.859604E-04
       N       E                     dE             d eps       ncg     rms          rms(c)
DAV:   1    -0.115992115931E+03   -0.60682E-05   -0.35781E-05    84   0.327E-02    0.355E-03
RMM:   2    -0.115992116537E+03   -0.60523E-06   -0.15228E-06    33   0.686E-03
 143 F= -.11623287E+03 E0= -.11623287E+03  d E =-.266433E-05
       N       E                     dE             d eps       ncg     rms          rms(c)
DAV:   1    -0.115992156704E+03   -0.40773E-04   -0.79204E-04    73   0.148E-01    0.608E-03
RMM:   2    -0.115992157501E+03   -0.79624E-06   -0.12023E-05    43   0.177E-02
 144 F= -.11623291E+03 E0= -.11623291E+03  d E =-.391775E-04
       N       E                     dE             d eps       ncg     rms          rms(c)
DAV:   1    -0.115992456425E+03   -0.29972E-03   -0.79751E-02    70   0.149E+00    0.589E-02
RMM:   2    -0.115992514509E+03   -0.58083E-04   -0.11940E-03    70   0.178E-01    0.358E-02
RMM:   3    -0.115992546385E+03   -0.31877E-04   -0.17842E-04    70   0.753E-02    0.128E-02
RMM:   4    -0.115992554719E+03   -0.83341E-05   -0.42126E-05    56   0.346E-02
 145 F= -.11623329E+03 E0= -.11623329E+03  d E =-.381384E-03
       N       E                     dE             d eps       ncg     rms          rms(c)
DAV:   1    -0.115992336703E+03    0.20968E-03   -0.19192E-02    70   0.732E-01    0.287E-02
RMM:   2    -0.115992351120E+03   -0.14417E-04   -0.27288E-04    70   0.855E-02    0.170E-02
RMM:   3    -0.115992360071E+03   -0.89509E-05   -0.39468E-05    53   0.355E-02
 146 F= -.11623311E+03 E0= -.11623311E+03  d E =0.185343E-03
       N       E                     dE             d eps       ncg     rms          rms(c)
DAV:   1    -0.115992326349E+03    0.24772E-04   -0.60303E-04    70   0.129E-01    0.583E-03
RMM:   2    -0.115992327405E+03   -0.10560E-05   -0.12146E-05    46   0.175E-02
 147 F= -.11623307E+03 E0= -.11623307E+03  d E =0.321422E-04
       N       E                     dE             d eps       ncg     rms          rms(c)
DAV:   1    -0.115992386685E+03   -0.60336E-04   -0.20971E-03    73   0.246E-01    0.134E-02
RMM:   2    -0.115992388389E+03   -0.17046E-05   -0.40380E-05    52   0.325E-02
 148 F= -.11623313E+03 E0= -.11623313E+03  d E =-.562519E-04
       N       E                     dE             d eps       ncg     rms          rms(c)
DAV:   1    -0.115992134326E+03    0.25236E-03   -0.14036E-02    70   0.636E-01    0.378E-02
RMM:   2    -0.115992145823E+03   -0.11497E-04   -0.30704E-04    70   0.891E-02    0.189E-02
RMM:   3    -0.115992146816E+03   -0.99287E-06   -0.45019E-05    56   0.375E-02
 149 F= -.11623290E+03 E0= -.11623290E+03  d E =0.229256E-03
       N       E                     dE             d eps       ncg     rms          rms(c)
DAV:   1    -0.115991794873E+03    0.35095E-03   -0.54436E-02    70   0.121E+00    0.630E-02
RMM:   2    -0.115991841539E+03   -0.46665E-04   -0.11479E-03    70   0.166E-01    0.363E-02
RMM:   3    -0.115991848989E+03   -0.74506E-05   -0.16293E-04    63   0.695E-02    0.186E-02
RMM:   4    -0.115991856824E+03   -0.78346E-05   -0.62871E-05    56   0.394E-02
 150 F= -.11623260E+03 E0= -.11623260E+03  d E =0.302031E-03
       N       E                     dE             d eps       ncg     rms          rms(c)
DAV:   1    -0.115991008754E+03    0.84024E-03   -0.16110E-01    70   0.209E+00    0.937E-02
RMM:   2    -0.115991136989E+03   -0.12824E-03   -0.27081E-03    70   0.261E-01    0.534E-02
RMM:   3    -0.115991185095E+03   -0.48106E-04   -0.42226E-04    71   0.110E-01    0.251E-02
RMM:   4    -0.115991203838E+03   -0.18743E-04   -0.94115E-05    61   0.524E-02    0.795E-03
RMM:   5    -0.115991206782E+03   -0.29439E-05   -0.21613E-05    50   0.235E-02
 151 F= -.11623197E+03 E0= -.11623197E+03  d E =0.631596E-03
       N       E                     dE             d eps       ncg     rms          rms(c)
DAV:   1    -0.115990862062E+03    0.34178E-03   -0.30072E-02    76   0.938E-01    0.759E-02
RMM:   2    -0.115990867237E+03   -0.51744E-05   -0.89203E-04    70   0.152E-01    0.387E-02
RMM:   3    -0.115990853509E+03    0.13728E-04   -0.13266E-04    64   0.650E-02    0.190E-02
RMM:   4    -0.115990854500E+03   -0.99130E-06   -0.68865E-05    62   0.403E-02
 152 F= -.11623160E+03 E0= -.11623160E+03  d E =0.372674E-03
       N       E                     dE             d eps       ncg     rms          rms(c)
DAV:   1    -0.115991225536E+03   -0.37203E-03   -0.28274E-02    70   0.899E-01    0.751E-02
RMM:   2    -0.115991224394E+03    0.11416E-05   -0.82700E-04    70   0.144E-01    0.377E-02
RMM:   3    -0.115991210295E+03    0.14099E-04   -0.12556E-04    64   0.628E-02    0.179E-02
RMM:   4    -0.115991212032E+03   -0.17366E-05   -0.68589E-05    63   0.397E-02
 153 F= -.11623197E+03 E0= -.11623197E+03  d E =-.374475E-03
       N       E                     dE             d eps       ncg     rms          rms(c)
DAV:   1    -0.115991289937E+03   -0.79642E-04   -0.41485E-03    70   0.367E-01    0.308E-02
RMM:   2    -0.115991285126E+03    0.48109E-05   -0.11108E-04    61   0.571E-02    0.150E-02
RMM:   3    -0.115991282831E+03    0.22954E-05   -0.21608E-05    48   0.258E-02
 154 F= -.11623203E+03 E0= -.11623203E+03  d E =-.580270E-04
       N       E                     dE             d eps       ncg     rms          rms(c)
[...]
RMM:   3    -0.115992196707E+03   -0.11400E-04   -0.76234E-05    58   0.464E-02    0.101E-02
RMM:   4    -0.115992200553E+03   -0.38461E-05   -0.15823E-05    49   0.212E-02
 165 F= -.11623291E+03 E0= -.11623291E+03  d E =-.922025E-04
       N       E                     dE             d eps       ncg     rms          rms(c)
DAV:   1    -0.115992193663E+03    0.30439E-05   -0.45896E-03    70   0.343E-01    0.127E-02
RMM:   2    -0.115992197508E+03   -0.38455E-05   -0.75694E-05    57   0.432E-02
 166 F= -.11623291E+03 E0= -.11623291E+03  d E =0.455121E-05
       N       E                     dE             d eps       ncg     rms          rms(c)
DAV:   1    -0.115992189183E+03    0.44795E-05   -0.67885E-03    70   0.420E-01    0.178E-02
RMM:   2    -0.115992193383E+03   -0.42001E-05   -0.11663E-04    59   0.534E-02    0.114E-02
RMM:   3    -0.115992197791E+03   -0.44079E-05   -0.18062E-05    49   0.230E-02
 167 F= -.11623291E+03 E0= -.11623291E+03  d E =0.228117E-06
       N       E                     dE             d eps       ncg     rms          rms(c)
DAV:   1    -0.115992119115E+03    0.74269E-04   -0.31455E-02    70   0.901E-01    0.357E-02
RMM:   2    -0.115992146038E+03   -0.26923E-04   -0.52052E-04    70   0.114E-01    0.213E-02
RMM:   3    -0.115992158299E+03   -0.12261E-04   -0.77547E-05    57   0.479E-02    0.100E-02
RMM:   4    -0.115992162727E+03   -0.44286E-05   -0.18727E-05    50   0.225E-02
 168 F= -.11623287E+03 E0= -.11623287E+03  d E =0.413506E-04
       N       E                     dE             d eps       ncg     rms          rms(c)
DAV:   1    -0.115992144027E+03    0.14271E-04   -0.92597E-03    70   0.490E-01    0.204E-02
RMM:   2    -0.115992151818E+03   -0.77909E-05   -0.16699E-04    62   0.639E-02    0.125E-02
RMM:   3    -0.115992155210E+03   -0.33915E-05   -0.24672E-05    50   0.267E-02
 169 F= -.11623286E+03 E0= -.11623286E+03  d E =0.665228E-05
       N       E                     dE             d eps       ncg     rms          rms(c)
DAV:   1    -0.115992122288E+03    0.29531E-04   -0.48704E-03    70   0.353E-01    0.137E-02
RMM:   2    -0.115992126346E+03   -0.40586E-05   -0.81087E-05    58   0.452E-02
 170 F= -.11623283E+03 E0= -.11623283E+03  d E =0.305213E-04
       N       E                     dE             d eps       ncg     rms          rms(c)
DAV:   1    -0.115992008479E+03    0.11381E-03   -0.33164E-02    70   0.919E-01    0.365E-02
RMM:   2    -0.115992032846E+03   -0.24367E-04   -0.52762E-04    70   0.115E-01    0.225E-02
RMM:   3    -0.115992048084E+03   -0.15238E-04   -0.79008E-05    57   0.484E-02    0.895E-03
RMM:   4    -0.115992052331E+03   -0.42470E-05   -0.17937E-05    50   0.215E-02
 171 F= -.11623275E+03 E0= -.11623275E+03  d E =0.775032E-04
       N       E                     dE             d eps       ncg     rms          rms(c)
DAV:   1    -0.115991994824E+03    0.53260E-04   -0.89461E-03    70   0.477E-01    0.177E-02
RMM:   2    -0.115992002198E+03   -0.73747E-05   -0.14185E-04    61   0.596E-02    0.108E-02
RMM:   3    -0.115992006339E+03   -0.41405E-05   -0.21553E-05    50   0.249E-02
 172 F= -.11623270E+03 E0= -.11623270E+03  d E =0.464781E-04
       N       E                     dE             d eps       ncg     rms          rms(c)
DAV:   1    -0.115991957105E+03    0.45093E-04   -0.92184E-03    70   0.486E-01    0.192E-02
RMM:   2    -0.115991964575E+03   -0.74695E-05   -0.15231E-04    61   0.620E-02    0.116E-02
RMM:   3    -0.115991968917E+03   -0.43422E-05   -0.23773E-05    50   0.260E-02
 173 F= -.11623266E+03 E0= -.11623266E+03  d E =0.407695E-04
       N       E                     dE             d eps       ncg     rms          rms(c)
DAV:   1    -0.115991935711E+03    0.28864E-04   -0.42636E-03    70   0.330E-01    0.127E-02
RMM:   2    -0.115991939310E+03   -0.35998E-05   -0.72791E-05    57   0.427E-02
 174 F= -.11623263E+03 E0= -.11623263E+03  d E =0.299881E-04
       N       E                     dE             d eps       ncg     rms          rms(c)
DAV:   1    -0.115991789709E+03    0.14600E-03   -0.44868E-02    70   0.107E+00    0.428E-02
RMM:   2    -0.115991823905E+03   -0.34197E-04   -0.70950E-04    70   0.133E-01    0.258E-02
RMM:   3    -0.115991843024E+03   -0.19118E-04   -0.10562E-04    57   0.559E-02    0.110E-02
RMM:   4    -0.115991848671E+03   -0.56476E-05   -0.24054E-05    52   0.249E-02
 175 F= -.11623254E+03 E0= -.11623254E+03  d E =0.957691E-04
       N       E                     dE             d eps       ncg     rms          rms(c)
DAV:   1    -0.115991753128E+03    0.89895E-04   -0.25056E-02    70   0.798E-01    0.299E-02
RMM:   2    -0.115991773624E+03   -0.20496E-04   -0.38711E-04    70   0.988E-02    0.179E-02
RMM:   3    -0.115991784035E+03   -0.10411E-04   -0.58586E-05    56   0.415E-02    0.788E-03
RMM:   4    -0.115991787203E+03   -0.31679E-05   -0.13591E-05    47   0.184E-02
 176 F= -.11623247E+03 E0= -.11623247E+03  d E =0.642613E-04
       N       E                     dE             d eps       ncg     rms          rms(c)
DAV:   1    -0.115991701958E+03    0.82077E-04   -0.22330E-02    70   0.753E-01    0.285E-02
RMM:   2    -0.115991720121E+03   -0.18164E-04   -0.34228E-04    70   0.929E-02    0.169E-02
RMM:   3    -0.115991729469E+03   -0.93471E-05   -0.51665E-05    55   0.390E-02
 177 F= -.11623241E+03 E0= -.11623241E+03  d E =0.609460E-04
       N       E                     dE             d eps       ncg     rms          rms(c)
DAV:   1    -0.115991418385E+03    0.30174E-03   -0.13014E-01    70   0.182E+00    0.694E-02
RMM:   2    -0.115991531966E+03   -0.11358E-03   -0.20085E-03    70   0.226E-01    0.413E-02
RMM:   3    -0.115991579321E+03   -0.47355E-04   -0.30710E-04    70   0.954E-02    0.182E-02
RMM:   4    -0.115991594076E+03   -0.14755E-04   -0.74663E-05    57   0.445E-02    0.629E-03
RMM:   5    -0.115991596987E+03   -0.29101E-05   -0.17031E-05    49   0.202E-02
 178 F= -.11623227E+03 E0= -.11623227E+03  d E =0.140075E-03
       N       E                     dE             d eps       ncg     rms          rms(c)
DAV:   1    -0.115991542266E+03    0.51810E-04   -0.15749E-02    70   0.634E-01    0.239E-02
RMM:   2    -0.115991556470E+03   -0.14203E-04   -0.25241E-04    68   0.798E-02    0.142E-02
RMM:   3    -0.115991563197E+03   -0.67270E-05   -0.39339E-05    54   0.341E-02
 179 F= -.11623224E+03 E0= -.11623224E+03  d E =0.361839E-04
       N       E                     dE             d eps       ncg     rms          rms(c)
DAV:   1    -0.115991484032E+03    0.72438E-04   -0.26438E-02    70   0.824E-01    0.318E-02
RMM:   2    -0.115991506782E+03   -0.22750E-04   -0.42497E-04    70   0.104E-01    0.191E-02
RMM:   3    -0.115991518474E+03   -0.11692E-04   -0.66480E-05    56   0.442E-02    0.878E-03
RMM:   4    -0.115991522001E+03   -0.35271E-05   -0.15964E-05    50   0.203E-02
 180 F= -.11623219E+03 E0= -.11623219E+03  d E =0.461470E-04
       N       E                     dE             d eps       ncg     rms          rms(c)
DAV:   1    -0.115991121738E+03    0.39674E-03   -0.21521E-01    70   0.234E+00    0.896E-02
RMM:   2    -0.115991315692E+03   -0.19395E-03   -0.33043E-03    70   0.289E-01    0.525E-02
RMM:   3    -0.115991386638E+03   -0.70946E-04   -0.49050E-04    70   0.121E-01    0.234E-02
RMM:   4    -0.115991409387E+03   -0.22748E-04   -0.11716E-04    62   0.560E-02    0.826E-03
RMM:   5    -0.115991413600E+03   -0.42129E-05   -0.26346E-05    51   0.253E-02
 181 F= -.11623207E+03 E0= -.11623207E+03  d E =0.119301E-03
       N       E                     dE             d eps       ncg     rms          rms(c)
DAV:   1    -0.115991377210E+03    0.32177E-04   -0.19864E-02    70   0.719E-01    0.280E-02
RMM:   2    -0.115991395409E+03   -0.18199E-04   -0.32362E-04    70   0.906E-02    0.162E-02
RMM:   3    -0.115991403657E+03   -0.82483E-05   -0.50257E-05    55   0.387E-02
 182 F= -.11623205E+03 E0= -.11623205E+03  d E =0.156671E-04
       N       E                     dE             d eps       ncg     rms          rms(c)
DAV:   1    -0.115991421722E+03   -0.26313E-04   -0.69371E-04    76   0.144E-01    0.107E-02
RMM:   2    -0.115991423189E+03   -0.14662E-05   -0.22570E-05    49   0.237E-02
 183 F= -.11623208E+03 E0= -.11623208E+03  d E =-.207538E-04
       N       E                     dE             d eps       ncg     rms          rms(c)
DAV:   1    -0.115991439659E+03   -0.17937E-04   -0.83417E-04    76   0.156E-01    0.907E-03
RMM:   2    -0.115991441166E+03   -0.15076E-05   -0.21437E-05    47   0.231E-02
 184 F= -.11623209E+03 E0= -.11623209E+03  d E =-.151413E-04
       N       E                     dE             d eps       ncg     rms          rms(c)
DAV:   1    -0.115991457733E+03   -0.18074E-04   -0.97826E-04    70   0.165E-01    0.854E-03
RMM:   2    -0.115991459091E+03   -0.13580E-05   -0.21379E-05    47   0.228E-02
 185 F= -.11623211E+03 E0= -.11623211E+03  d E =-.179385E-04
       N       E                     dE             d eps       ncg     rms          rms(c)
DAV:   1    -0.115991510776E+03   -0.53043E-04   -0.13378E-01    70   0.190E+00    0.771E-02
RMM:   2    -0.115991618970E+03   -0.10819E-03   -0.20702E-03    70   0.231E-01    0.449E-02
RMM:   3    -0.115991667641E+03   -0.48671E-04   -0.30605E-04    70   0.974E-02    0.193E-02
RMM:   4    -0.115991682229E+03   -0.14588E-04   -0.73693E-05    59   0.454E-02    0.703E-03
RMM:   5    -0.115991684951E+03   -0.27221E-05   -0.15865E-05    49   0.202E-02
 186 F= -.11623232E+03 E0= -.11623232E+03  d E =-.207244E-03
       N       E                     dE             d eps       ncg     rms          rms(c)
DAV:   1    -0.115991658918E+03    0.23311E-04   -0.37108E-03    70   0.324E-01    0.179E-02
RMM:   2    -0.115991662704E+03   -0.37866E-05   -0.69297E-05    56   0.418E-02
 187 F= -.11623230E+03 E0= -.11623230E+03  d E =0.169471E-04
       N       E                     dE             d eps       ncg     rms          rms(c)
DAV:   1    -0.115991704939E+03   -0.46021E-04   -0.23449E-03    73   0.257E-01    0.104E-02
RMM:   2    -0.115991708959E+03   -0.40198E-05   -0.41752E-05    53   0.329E-02
 188 F= -.11623234E+03 E0= -.11623234E+03  d E =-.424389E-04
       N       E                     dE             d eps       ncg     rms          rms(c)
DAV:   1    -0.115991825842E+03   -0.12090E-03   -0.31686E-03    70   0.309E-01    0.148E-02
RMM:   2    -0.115991827056E+03   -0.12143E-05   -0.47245E-05    56   0.368E-02
 189 F= -.11623245E+03 E0= -.11623245E+03  d E =-.113414E-03
       N       E                     dE             d eps       ncg     rms          rms(c)
DAV:   1    -0.115991973054E+03   -0.14721E-03   -0.60494E-03    70   0.426E-01    0.193E-02
RMM:   2    -0.115991976787E+03   -0.37324E-05   -0.95115E-05    64   0.515E-02
 190 F= -.11623260E+03 E0= -.11623260E+03  d E =-.147419E-03
       N       E                     dE             d eps       ncg     rms          rms(c)
DAV:   1    -0.115992042652E+03   -0.69597E-04   -0.90952E-04    81   0.173E-01    0.119E-02
RMM:   2    -0.115992043371E+03   -0.71887E-06   -0.23650E-05    47   0.258E-02
 191 F= -.11623266E+03 E0= -.11623266E+03  d E =-.625164E-04
       N       E                     dE             d eps       ncg     rms          rms(c)
DAV:   1    -0.115992051855E+03   -0.92034E-05   -0.11479E-03    70   0.186E-01    0.149E-02
RMM:   2    -0.115992053375E+03   -0.15195E-05   -0.40304E-05    53   0.320E-02
 192 F= -.11623268E+03 E0= -.11623268E+03  d E =-.127299E-04
       N       E                     dE             d eps       ncg     rms          rms(c)
DAV:   1    -0.115992139468E+03   -0.87613E-04   -0.16622E-03    76   0.229E-01    0.123E-02
RMM:   2    -0.115992141535E+03   -0.20667E-05   -0.39167E-05    54   0.325E-02
 193 F= -.11623276E+03 E0= -.11623276E+03  d E =-.839369E-04
       N       E                     dE             d eps       ncg     rms          rms(c)
DAV:   1    -0.115992259669E+03   -0.12020E-03   -0.31231E-03    70   0.306E-01    0.154E-02
RMM:   2    -0.115992260485E+03   -0.81563E-06   -0.45927E-05    54   0.363E-02
 194 F= -.11623288E+03 E0= -.11623288E+03  d E =-.114202E-03
       N       E                     dE             d eps       ncg     rms          rms(c)
DAV:   1    -0.115992293581E+03   -0.33912E-04   -0.26330E-04    89   0.911E-02    0.561E-03
RMM:   2    -0.115992293768E+03   -0.18649E-06   -0.46954E-06    38   0.115E-02
 195 F= -.11623291E+03 E0= -.11623291E+03  d E =-.327775E-04
       N       E                     dE             d eps       ncg     rms          rms(c)
DAV:   1    -0.115992356177E+03   -0.62596E-04   -0.12093E-03    73   0.189E-01    0.834E-03
RMM:   2    -0.115992356955E+03   -0.77781E-06   -0.19592E-05    44   0.229E-02
 196 F= -.11623297E+03 E0= -.11623297E+03  d E =-.595008E-04
       N       E                     dE             d eps       ncg     rms          rms(c)
DAV:   1    -0.115992452076E+03   -0.95899E-04   -0.71404E-03    70   0.460E-01    0.238E-02
RMM:   2    -0.115992456508E+03   -0.44320E-05   -0.12326E-04    66   0.580E-02    0.132E-02
RMM:   3    -0.115992458729E+03   -0.22205E-05   -0.19252E-05    49   0.245E-02
 197 F= -.11623307E+03 E0= -.11623307E+03  d E =-.100533E-03
       N       E                     dE             d eps       ncg     rms          rms(c)
DAV:   1    -0.115992451663E+03    0.48454E-05   -0.53396E-03    70   0.392E-01    0.334E-02
RMM:   2    -0.115992455023E+03   -0.33599E-05   -0.17527E-04    62   0.663E-02    0.169E-02
RMM:   3    -0.115992452484E+03    0.25382E-05   -0.25605E-05    49   0.282E-02
 198 F= -.11623306E+03 E0= -.11623306E+03  d E =0.391510E-05
       N       E                     dE             d eps       ncg     rms          rms(c)
DAV:   1    -0.115992662543E+03   -0.20752E-03   -0.11713E-02    70   0.605E-01    0.346E-02
RMM:   2    -0.115992671775E+03   -0.92320E-05   -0.25048E-04    70   0.835E-02    0.186E-02
RMM:   3    -0.115992671679E+03    0.95744E-07   -0.36688E-05    54   0.346E-02
 199 F= -.11623327E+03 E0= -.11623327E+03  d E =-.210071E-03
       N       E                     dE             d eps       ncg     rms          rms(c)
DAV:   1    -0.115992762966E+03   -0.91191E-04   -0.27971E-03    73   0.287E-01    0.131E-02
RMM:   2    -0.115992765313E+03   -0.23471E-05   -0.50622E-05    55   0.370E-02
 200 F= -.11623337E+03 E0= -.11623337E+03  d E =-.920119E-04
       N       E                     dE             d eps       ncg     rms          rms(c)
DAV:   1    -0.115992857836E+03   -0.94870E-04   -0.22743E-03    70   0.262E-01    0.130E-02
RMM:   2    -0.115992858787E+03   -0.95058E-06   -0.36691E-05    53   0.320E-02
 201 F= -.11623346E+03 E0= -.11623346E+03  d E =-.928316E-04
       N       E                     dE             d eps       ncg     rms          rms(c)
DAV:   1    -0.115992984688E+03   -0.12685E-03   -0.37891E-03    70   0.337E-01    0.158E-02
RMM:   2    -0.115992986273E+03   -0.15844E-05   -0.58021E-05    58   0.403E-02
 202 F= -.11623358E+03 E0= -.11623358E+03  d E =-.121343E-03
       N       E                     dE             d eps       ncg     rms          rms(c)
DAV:   1    -0.115993258015E+03   -0.27333E-03   -0.20087E-02    70   0.774E-01    0.344E-02
RMM:   2    -0.115993268692E+03   -0.10677E-04   -0.28870E-04    70   0.907E-02    0.211E-02
RMM:   3    -0.115993276527E+03   -0.78347E-05   -0.47246E-05    57   0.391E-02
 203 F= -.11623387E+03 E0= -.11623387E+03  d E =-.284531E-03
       N       E                     dE             d eps       ncg     rms          rms(c)
DAV:   1    -0.115993534467E+03   -0.26578E-03   -0.18831E-02    70   0.751E-01    0.324E-02
RMM:   2    -0.115993547763E+03   -0.13296E-04   -0.30228E-04    70   0.926E-02    0.203E-02
RMM:   3    -0.115993553979E+03   -0.62163E-05   -0.50166E-05    58   0.399E-02
 204 F= -.11623414E+03 E0= -.11623414E+03  d E =-.270744E-03
       N       E                     dE             d eps       ncg     rms          rms(c)
DAV:   1    -0.115993777377E+03   -0.22961E-03   -0.11039E-02    70   0.579E-01    0.264E-02
RMM:   2    -0.115993785208E+03   -0.78312E-05   -0.18076E-04    70   0.723E-02    0.159E-02
RMM:   3    -0.115993788360E+03   -0.31514E-05   -0.29949E-05    54   0.308E-02
 205 F= -.11623436E+03 E0= -.11623436E+03  d E =-.226466E-03
       N       E                     dE             d eps       ncg     rms          rms(c)
DAV:   1    -0.115993967885E+03   -0.18268E-03   -0.68818E-03    70   0.453E-01    0.195E-02
RMM:   2    -0.115993972206E+03   -0.43204E-05   -0.99604E-05    65   0.540E-02
 206 F= -.11623454E+03 E0= -.11623454E+03  d E =-.179977E-03
       N       E                     dE             d eps       ncg     rms          rms(c)
DAV:   1    -0.115994277834E+03   -0.30995E-03   -0.21120E-02    70   0.796E-01    0.354E-02
RMM:   2    -0.115994288315E+03   -0.10481E-04   -0.29424E-04    70   0.923E-02    0.220E-02
RMM:   3    -0.115994297184E+03   -0.88685E-05   -0.50517E-05    59   0.403E-02
 207 F= -.11623486E+03 E0= -.11623486E+03  d E =-.317249E-03
       N       E                     dE             d eps       ncg     rms          rms(c)
DAV:   1    -0.115994523612E+03   -0.23530E-03   -0.10607E-02    70   0.563E-01    0.243E-02
RMM:   2    -0.115994530104E+03   -0.64924E-05   -0.15413E-04    69   0.675E-02    0.151E-02
RMM:   3    -0.115994534875E+03   -0.47709E-05   -0.27436E-05    51   0.293E-02
 208 F= -.11623509E+03 E0= -.11623509E+03  d E =-.228841E-03
       N       E                     dE             d eps       ncg     rms          rms(c)
DAV:   1    -0.115994700435E+03   -0.17033E-03   -0.56274E-03    70   0.411E-01    0.181E-02
RMM:   2    -0.115994703951E+03   -0.35155E-05   -0.82213E-05    63   0.494E-02
 209 F= -.11623526E+03 E0= -.11623526E+03  d E =-.166664E-03
       N       E                     dE             d eps       ncg     rms          rms(c)
DAV:   1    -0.115994891889E+03   -0.19145E-03   -0.66254E-03    70   0.451E-01    0.223E-02
RMM:   2    -0.115994894340E+03   -0.24518E-05   -0.10013E-04    66   0.540E-02    0.139E-02
RMM:   3    -0.115994897925E+03   -0.35850E-05   -0.18074E-05    47   0.237E-02
 210 F= -.11623544E+03 E0= -.11623544E+03  d E =-.187658E-03
       N       E                     dE             d eps       ncg     rms          rms(c)
DAV:   1    -0.115994987236E+03   -0.92896E-04   -0.16525E-03    76   0.229E-01    0.125E-02
RMM:   2    -0.115994988674E+03   -0.14375E-05   -0.34296E-05    52   0.314E-02
 211 F= -.11623553E+03 E0= -.11623553E+03  d E =-.867949E-04
       N       E                     dE             d eps       ncg     rms          rms(c)
DAV:   1    -0.115995329279E+03   -0.34204E-03   -0.23209E-02    70   0.835E-01    0.377E-02
RMM:   2    -0.115995339255E+03   -0.99758E-05   -0.30742E-04    70   0.954E-02    0.233E-02
RMM:   3    -0.115995348191E+03   -0.89355E-05   -0.52925E-05    60   0.415E-02
 212 F= -.11623588E+03 E0= -.11623588E+03  d E =-.350766E-03
       N       E                     dE             d eps       ncg     rms          rms(c)
DAV:   1    -0.115995364926E+03   -0.25670E-04   -0.42155E-05    81   0.353E-02    0.332E-03
RMM:   2    -0.115995365279E+03   -0.35308E-06   -0.23523E-06    37   0.902E-03
 213 F= -.11623590E+03 E0= -.11623590E+03  d E =-.160195E-04
       N       E                     dE             d eps       ncg     rms          rms(c)
DAV:   1    -0.115995402015E+03   -0.37089E-04   -0.21563E-04    73   0.814E-02    0.396E-03
RMM:   2    -0.115995402398E+03   -0.38372E-06   -0.31176E-06    39   0.966E-03
 214 F= -.11623593E+03 E0= -.11623593E+03  d E =-.364008E-04
       N       E                     dE             d eps       ncg     rms          rms(c)
DAV:   1    -0.115995721591E+03   -0.31958E-03   -0.16429E-02    70   0.705E-01    0.317E-02
RMM:   2    -0.115995728038E+03   -0.64475E-05   -0.20322E-04    70   0.787E-02    0.194E-02
RMM:   3    -0.115995734238E+03   -0.61998E-05   -0.36251E-05    56   0.341E-02
 215 F= -.11623626E+03 E0= -.11623626E+03  d E =-.322501E-03
