  13  13   0   0
  0.4399093E+03  0.1965580E-08  0.1732980E-08  0.1678890E-08  0.5000000E-15
  1.000000000000000E-004
  CAR 
 unknown system                          
      1.77232993    -23.18929282  301     -5.04531328      1.00000000
    -23.189  0.0000E+00  0.0000E+00
    -23.106  0.0000E+00  0.0000E+00
    -23.023  0.0000E+00  0.0000E+00
    -22.940  0.0000E+00  0.0000E+00
    -22.856  0.0000E+00  0.0000E+00
    -22.773  0.0000E+00  0.0000E+00
    -22.690  0.0000E+00  0.0000E+00
    -22.607  0.0000E+00  0.0000E+00
    -22.524  0.0000E+00  0.0000E+00
    -22.440  0.0000E+00  0.0000E+00
    -22.357  0.0000E+00  0.0000E+00
    -22.274  0.6598E-08  0.5490E-09
    -22.191  0.1414E-02  0.1176E-03
    -22.108  0.1612E+01  0.1342E+00
    -22.024  0.1771E+02  0.1608E+01
    -21.941  0.4697E+01  0.1999E+01
    -21.858  0.1600E-01  0.2000E+01
    -21.775  0.3194E-06  0.2000E+01
    -21.692  0.2935E-13  0.2000E+01
    -21.608  0.0000E+00  0.2000E+01
    -21.525  0.0000E+00  0.2000E+01
    -21.442  0.0000E+00  0.2000E+01
    -21.359  0.0000E+00  0.2000E+01
    -21.276  0.0000E+00  0.2000E+01
    -21.192  0.0000E+00  0.2000E+01
    -21.109  0.0000E+00  0.2000E+01
    -21.026  0.0000E+00  0.2000E+01
    -20.943  0.0000E+00  0.2000E+01
    -20.860  0.0000E+00  0.2000E+01
    -20.776  0.0000E+00  0.2000E+01
    -20.693  0.0000E+00  0.2000E+01
    -20.610  0.0000E+00  0.2000E+01
    -20.527  0.0000E+00  0.2000E+01
    -20.444  0.0000E+00  0.2000E+01
    -20.360  0.0000E+00  0.2000E+01
    -20.277  0.0000E+00  0.2000E+01
    -20.194  0.0000E+00  0.2000E+01
    -20.111  0.0000E+00  0.2000E+01
    -20.027  0.0000E+00  0.2000E+01
    -19.944  0.0000E+00  0.2000E+01
    -19.861  0.0000E+00  0.2000E+01
    -19.778  0.0000E+00  0.2000E+01
    -19.695  0.0000E+00  0.2000E+01
    -19.611  0.0000E+00  0.2000E+01
    -19.528  0.0000E+00  0.2000E+01
    -19.445  0.0000E+00  0.2000E+01
    -19.362  0.0000E+00  0.2000E+01
    -19.279  0.0000E+00  0.2000E+01
    -19.195  0.0000E+00  0.2000E+01
    -19.112  0.0000E+00  0.2000E+01
    -19.029  0.0000E+00  0.2000E+01
    -18.946  0.1556E-11  0.2000E+01
    -18.863  0.5218E-05  0.2000E+01
    -18.779  0.8335E-01  0.2007E+01
    -18.696  0.8678E+01  0.2729E+01
    -18.613  0.1474E+02  0.3955E+01
    -18.530  0.5378E+00  0.4000E+01
    -18.447  0.1561E-03  0.4000E+01
    -18.363  0.2280E-09  0.4000E+01
    -18.280  0.0000E+00  0.4000E+01
    -18.197  0.0000E+00  0.4000E+01
    -18.114  0.0000E+00  0.4000E+01
    -18.031  0.0000E+00  0.4000E+01
    -17.947  0.0000E+00  0.4000E+01
    -17.864  0.0000E+00  0.4000E+01
    -17.781  0.0000E+00  0.4000E+01
    -17.698  0.0000E+00  0.4000E+01
    -17.615  0.0000E+00  0.4000E+01
    -17.531  0.0000E+00  0.4000E+01
    -17.448  0.0000E+00  0.4000E+01
    -17.365  0.0000E+00  0.4000E+01
    -17.282  0.0000E+00  0.4000E+01
    -17.199  0.0000E+00  0.4000E+01
    -17.115  0.0000E+00  0.4000E+01
    -17.032  0.0000E+00  0.4000E+01
    -16.949  0.0000E+00  0.4000E+01
    -16.866  0.0000E+00  0.4000E+01
    -16.782  0.0000E+00  0.4000E+01
    -16.699  0.0000E+00  0.4000E+01
    -16.616  0.0000E+00  0.4000E+01
    -16.533  0.0000E+00  0.4000E+01
    -16.450  0.0000E+00  0.4000E+01
    -16.366  0.0000E+00  0.4000E+01
    -16.283  0.0000E+00  0.4000E+01
    -16.200  0.1286E-08  0.4000E+01
    -16.117  0.4896E-03  0.4000E+01
    -16.034  0.9627E+00  0.4080E+01
    -15.950  0.1651E+02  0.5454E+01
    -15.867  0.6526E+01  0.5997E+01
    -15.784  0.3734E-01  0.6000E+01
    -15.701  0.1315E-05  0.6000E+01
    -15.618  0.2188E-12  0.6000E+01
    -15.534  0.0000E+00  0.6000E+01
    -15.451  0.0000E+00  0.6000E+01
    -15.368  0.0000E+00  0.6000E+01
    -15.285  0.0000E+00  0.6000E+01
    -15.202  0.0000E+00  0.6000E+01
    -15.118  0.0000E+00  0.6000E+01
    -15.035  0.0000E+00  0.6000E+01
    -14.952  0.0000E+00  0.6000E+01
    -14.869  0.0000E+00  0.6000E+01
    -14.786  0.0000E+00  0.6000E+01
    -14.702  0.0000E+00  0.6000E+01
    -14.619  0.0000E+00  0.6000E+01
    -14.536  0.2602E-09  0.6000E+01
    -14.453  0.1705E-03  0.6000E+01
    -14.370  0.5630E+00  0.6047E+01
    -14.286  0.1489E+02  0.7285E+01
    -14.203  0.8509E+01  0.7993E+01
    -14.120  0.7864E-01  0.8000E+01
    -14.037  0.4716E-05  0.8000E+01
    -13.953  0.1345E-11  0.8000E+01
    -13.870  0.0000E+00  0.8000E+01
    -13.787  0.0000E+00  0.8000E+01
    -13.704  0.0000E+00  0.8000E+01
    -13.621  0.0000E+00  0.8000E+01
    -13.537  0.0000E+00  0.8000E+01
    -13.454  0.0000E+00  0.8000E+01
    -13.371  0.0000E+00  0.8000E+01
    -13.288  0.0000E+00  0.8000E+01
    -13.205  0.0000E+00  0.8000E+01
    -13.121  0.0000E+00  0.8000E+01
    -13.038  0.0000E+00  0.8000E+01
    -12.955  0.0000E+00  0.8000E+01
    -12.872  0.0000E+00  0.8000E+01
    -12.789  0.0000E+00  0.8000E+01
    -12.705  0.0000E+00  0.8000E+01
    -12.622  0.0000E+00  0.8000E+01
    -12.539  0.0000E+00  0.8000E+01
    -12.456  0.5377E-12  0.8000E+01
    -12.373  0.2487E-05  0.8000E+01
    -12.289  0.5428E-01  0.8005E+01
    -12.206  0.7479E+01  0.8627E+01
    -12.123  0.1576E+02  0.9938E+01
    -12.040  0.7434E+00  0.1000E+02
    -11.957  0.2929E-03  0.1000E+02
    -11.873  0.5887E-09  0.1000E+02
    -11.790  0.0000E+00  0.1000E+02
    -11.707  0.0000E+00  0.1000E+02
    -11.624  0.0000E+00  0.1000E+02
    -11.541  0.0000E+00  0.1000E+02
    -11.457  0.0000E+00  0.1000E+02
    -11.374  0.0000E+00  0.1000E+02
    -11.291  0.0000E+00  0.1000E+02
    -11.208  0.2560E-10  0.1000E+02
    -11.125  0.3579E-04  0.1000E+02
    -11.041  0.2451E+00  0.1002E+02
    -10.958  0.1210E+02  0.1103E+02
    -10.875  0.1148E+02  0.1198E+02
    -10.792  0.2036E+00  0.1200E+02
    -10.708  0.2552E-04  0.1200E+02
    -10.625  0.1044E-05  0.1200E+02
    -10.542  0.3256E-01  0.1200E+02
    -10.459  0.6200E+01  0.1252E+02
    -10.376  0.1675E+02  0.1391E+02
    -10.292  0.1053E+01  0.1400E+02
    -10.209  0.5865E-03  0.1400E+02
    -10.126  0.1696E-08  0.1400E+02
    -10.043  0.2786E-10  0.1400E+02
     -9.960  0.3792E-04  0.1400E+02
     -9.876  0.2530E+00  0.1402E+02
     -9.793  0.1221E+02  0.1504E+02
     -9.710  0.1138E+02  0.1598E+02
     -9.627  0.1972E+00  0.1600E+02
     -9.544  0.2407E-04  0.1600E+02
     -9.460  0.1430E-10  0.1600E+02
     -9.377  0.4518E-07  0.1600E+02
     -9.294  0.4790E-02  0.1600E+02
     -9.211  0.2819E+01  0.1623E+02
     -9.128  0.1828E+02  0.1776E+02
     -9.044  0.2924E+01  0.1800E+02
     -8.961  0.5203E-02  0.1800E+02
     -8.878  0.5157E-07  0.1800E+02
     -8.795  0.2669E-14  0.1800E+02
     -8.712  0.0000E+00  0.1800E+02
     -8.628  0.0000E+00  0.1800E+02
     -8.545  0.3189E-12  0.1800E+02
     -8.462  0.1725E-05  0.1800E+02
     -8.379  0.4384E-01  0.1800E+02
     -8.296  0.7107E+01  0.1859E+02
     -8.212  0.2735E+02  0.2087E+02
     -8.129  0.1330E+02  0.2198E+02
     -8.046  0.2711E+00  0.2200E+02
     -7.963  0.4295E-04  0.2200E+02
     -7.879  0.3348E-10  0.2200E+02
     -7.796  0.0000E+00  0.2200E+02
     -7.713  0.0000E+00  0.2200E+02
     -7.630  0.6672E-14  0.2200E+02
     -7.547  0.1173E-06  0.2200E+02
     -7.463  0.8664E-02  0.2200E+02
     -7.380  0.3644E+01  0.2230E+02
     -7.297  0.1816E+02  0.2381E+02
     -7.214  0.2221E+01  0.2400E+02
     -7.131  0.2817E-02  0.2400E+02
     -7.047  0.1945E-07  0.2400E+02
     -6.964  0.0000E+00  0.2400E+02
     -6.881  0.0000E+00  0.2400E+02
     -6.798  0.0000E+00  0.2400E+02
     -6.715  0.0000E+00  0.2400E+02
     -6.631  0.0000E+00  0.2400E+02
     -6.548  0.0000E+00  0.2400E+02
     -6.465  0.0000E+00  0.2400E+02
     -6.382  0.0000E+00  0.2400E+02
     -6.299  0.0000E+00  0.2400E+02
     -6.215  0.0000E+00  0.2400E+02
     -6.132  0.0000E+00  0.2400E+02
     -6.049  0.0000E+00  0.2400E+02
     -5.966  0.0000E+00  0.2400E+02
     -5.883  0.0000E+00  0.2400E+02
     -5.799  0.0000E+00  0.2400E+02
     -5.716  0.0000E+00  0.2400E+02
     -5.633  0.1334E-14  0.2400E+02
     -5.550  0.4204E-07  0.2400E+02
     -5.467  0.4578E-02  0.2400E+02
     -5.383  0.2764E+01  0.2423E+02
     -5.300  0.1828E+02  0.2575E+02
     -5.217  0.2982E+01  0.2600E+02
     -5.134  0.5441E-02  0.2600E+02
     -5.051  0.5540E-07  0.2600E+02
     -4.967  0.2669E-14  0.2600E+02
     -4.884  0.0000E+00  0.2600E+02
     -4.801  0.0000E+00  0.2600E+02
     -4.718  0.0000E+00  0.2600E+02
     -4.634  0.0000E+00  0.2600E+02
     -4.551  0.0000E+00  0.2600E+02
     -4.468  0.0000E+00  0.2600E+02
     -4.385  0.0000E+00  0.2600E+02
     -4.302  0.0000E+00  0.2600E+02
     -4.218  0.0000E+00  0.2600E+02
     -4.135  0.0000E+00  0.2600E+02
     -4.052  0.0000E+00  0.2600E+02
     -3.969  0.0000E+00  0.2600E+02
     -3.886  0.0000E+00  0.2600E+02
     -3.802  0.0000E+00  0.2600E+02
     -3.719  0.0000E+00  0.2600E+02
     -3.636  0.0000E+00  0.2600E+02
     -3.553  0.0000E+00  0.2600E+02
     -3.470  0.0000E+00  0.2600E+02
     -3.386  0.0000E+00  0.2600E+02
     -3.303  0.0000E+00  0.2600E+02
     -3.220  0.0000E+00  0.2600E+02
     -3.137  0.0000E+00  0.2600E+02
     -3.054  0.0000E+00  0.2600E+02
     -2.970  0.0000E+00  0.2600E+02
     -2.887  0.0000E+00  0.2600E+02
     -2.804  0.0000E+00  0.2600E+02
     -2.721  0.0000E+00  0.2600E+02
     -2.638  0.0000E+00  0.2600E+02
     -2.554  0.0000E+00  0.2600E+02
     -2.471  0.0000E+00  0.2600E+02
     -2.388  0.0000E+00  0.2600E+02
     -2.305  0.0000E+00  0.2600E+02
     -2.222  0.0000E+00  0.2600E+02
     -2.138  0.0000E+00  0.2600E+02
     -2.055  0.0000E+00  0.2600E+02
     -1.972  0.0000E+00  0.2600E+02
     -1.889  0.0000E+00  0.2600E+02
     -1.806  0.0000E+00  0.2600E+02
     -1.722  0.0000E+00  0.2600E+02
     -1.639  0.0000E+00  0.2600E+02
     -1.556  0.0000E+00  0.2600E+02
     -1.473  0.0000E+00  0.2600E+02
     -1.389  0.0000E+00  0.2600E+02
     -1.306  0.0000E+00  0.2600E+02
     -1.223  0.0000E+00  0.2600E+02
     -1.140  0.0000E+00  0.2600E+02
     -1.057  0.0000E+00  0.2600E+02
     -0.973  0.0000E+00  0.2600E+02
     -0.890  0.0000E+00  0.2600E+02
     -0.807  0.9994E-12  0.2600E+02
     -0.724  0.3834E-05  0.2600E+02
     -0.641  0.6980E-01  0.2601E+02
     -0.557  0.8168E+01  0.2669E+02
     -0.474  0.1518E+02  0.2795E+02
     -0.391  0.6172E+00  0.2800E+02
     -0.308  0.2487E+00  0.2802E+02
     -0.225  0.1215E+02  0.2903E+02
     -0.141  0.1144E+02  0.2998E+02
     -0.058  0.2140E+00  0.3000E+02
      0.025  0.5943E+01  0.3050E+02
      0.108  0.4872E+02  0.3455E+02
      0.191  0.1728E+02  0.3599E+02
      0.275  0.1620E+00  0.3600E+02
      0.358  0.9628E+00  0.3608E+02
      0.441  0.1651E+02  0.3745E+02
      0.524  0.6542E+01  0.3800E+02
      0.607  0.4734E+01  0.3839E+02
      0.691  0.1771E+02  0.3987E+02
      0.774  0.1612E+01  0.4000E+02
      0.857  0.1414E-02  0.4000E+02
      0.940  0.6598E-08  0.4000E+02
      1.023  0.0000E+00  0.4000E+02
      1.107  0.0000E+00  0.4000E+02
      1.190  0.0000E+00  0.4000E+02
      1.273  0.0000E+00  0.4000E+02
      1.356  0.0000E+00  0.4000E+02
      1.440  0.0000E+00  0.4000E+02
      1.523  0.0000E+00  0.4000E+02
      1.606  0.0000E+00  0.4000E+02
      1.689  0.0000E+00  0.4000E+02
      1.772  0.0000E+00  0.4000E+02
