<?xml version="1.0" encoding="ISO-8859-1"?>
<modeling>
 <generator>
  <i name="program" type="string">vasp </i>
  <i name="version" type="string">6.3.2  </i>
  <i name="subversion" type="string">27Jun22 (build Dec 05 2023 10:50:29) complex                          parallel </i>
  <i name="platform" type="string">LinuxIFC </i>
  <i name="date" type="string">2023 12 05 </i>
  <i name="time" type="string">23:12:03 </i>
 </generator>
 <incar>
  <i type="string" name="ALGO">Fast</i>
  <i type="int" name="ISPIN">     1</i>
  <i name="ENCUT">    600.00000000</i>
  <i type="int" name="ISMEAR">     0</i>
  <i name="SIGMA">      0.05000000</i>
  <i type="logical" name="LWAVE"> F  </i>
  <i type="logical" name="LCHARG"> F  </i>
  <i type="string" name="GGA">PE</i>
  <i type="int" name="IVDW">    11</i>
 </incar>
 <primitive_cell>
  <structure name="primitive_cell" >
   <crystal>
    <varray name="basis" >
     <v>      19.65580000       0.00000000       0.00000000 </v>
     <v>       0.00000000      17.32980000       0.00000000 </v>
     <v>       0.00000000       0.00000000      16.78890000 </v>
    </varray>
    <i name="volume">   5718.82118669 </i>
    <varray name="rec_basis" >
     <v>       0.05087557       0.00000000       0.00000000 </v>
     <v>       0.00000000       0.05770407       0.00000000 </v>
     <v>       0.00000000       0.00000000       0.05956316 </v>
    </varray>
   </crystal>
   <varray name="positions" >
    <v>       0.61962118       0.49308213       0.50033871 </v>
    <v>       0.48721135       0.46983624       0.50050781 </v>
    <v>       0.55232214       0.52404091       0.49892649 </v>
    <v>       0.41707129       0.50926483       0.50247065 </v>
    <v>       0.49491948       0.43055059       0.44870180 </v>
    <v>       0.49189508       0.43236663       0.55115771 </v>
    <v>       0.54921577       0.57059585       0.55235647 </v>
    <v>       0.54889211       0.56575695       0.44361739 </v>
    <v>       0.41066469       0.55934892       0.54440969 </v>
    <v>       0.41040939       0.53850106       0.44243989 </v>
    <v>       0.37624587       0.46780603       0.50946607 </v>
    <v>       0.63511248       0.45943782       0.45314289 </v>
    <v>       0.62336126       0.46160030       0.54879884 </v>
   </varray>
  </structure>
  <varray name="primitive_index" >
   <v type="int" >        1 </v>
   <v type="int" >        2 </v>
   <v type="int" >        3 </v>
   <v type="int" >        4 </v>
   <v type="int" >        5 </v>
   <v type="int" >        6 </v>
   <v type="int" >        7 </v>
   <v type="int" >        8 </v>
   <v type="int" >        9 </v>
   <v type="int" >       10 </v>
   <v type="int" >       11 </v>
   <v type="int" >       12 </v>
   <v type="int" >       13 </v>
  </varray>
 </primitive_cell>
 <kpoints>
  <generation param="Gamma">
   <v type="int" name="divisions">       1        1        1 </v>
   <v name="usershift">      0.00000000       0.00000000       0.00000000 </v>
   <v name="genvec1">      1.00000000       0.00000000       0.00000000 </v>
   <v name="genvec2">      0.00000000       1.00000000       0.00000000 </v>
   <v name="genvec3">      0.00000000       0.00000000       1.00000000 </v>
   <v name="shift">      0.00000000       0.00000000       0.00000000 </v>
  </generation>
  <varray name="kpointlist" >
   <v>       0.00000000       0.00000000       0.00000000 </v>
  </varray>
  <varray name="weights" >
   <v>       1.00000000 </v>
  </varray>
 </kpoints>
 <parameters>
  <separator name="general" >
   <i type="string" name="SYSTEM">unknown system</i>
   <i type="logical" name="LCOMPAT"> F  </i>
  </separator>
  <separator name="electronic" >
   <i type="string" name="PREC">normal</i>
   <i name="ENMAX">    600.00000000</i>
   <i name="ENAUG">    644.87300000</i>
   <i name="EDIFF">      0.00010000</i>
   <i type="int" name="IALGO">    68</i>
   <i type="int" name="IWAVPR">    10</i>
   <i type="int" name="NBANDS">    20</i>
   <i type="int" name="NBANDSLOW">    -1</i>
   <i type="int" name="NBANDSHIGH">    -1</i>
   <i name="NELECT">     26.00000000</i>
   <i type="int" name="TURBO">     0</i>
   <i type="int" name="IRESTART">     0</i>
   <i type="int" name="NREBOOT">     0</i>
   <i type="int" name="NMIN">     0</i>
   <i name="EREF">      0.00000000</i>
   <separator name="electronic smearing" >
    <i type="int" name="ISMEAR">     0</i>
    <i name="SIGMA">      0.05000000</i>
    <i name="KSPACING">      0.50000000</i>
    <i type="logical" name="KGAMMA"> T  </i>
    <i type="logical" name="KBLOWUP"> T  </i>
   </separator>
   <separator name="electronic projectors" >
    <i type="logical" name="LREAL"> F  </i>
    <v name="ROPT">      0.00000000      0.00000000      0.00000000</v>
    <i type="int" name="LMAXPAW">  -100</i>
    <i type="int" name="LMAXMIX">     2</i>
    <i type="logical" name="NLSPLINE"> F  </i>
   </separator>
   <separator name="electronic startup" >
    <i type="int" name="ISTART">     0</i>
    <i type="int" name="ICHARG">     2</i>
    <i type="int" name="INIWAV">     1</i>
   </separator>
   <separator name="electronic spin" >
    <i type="int" name="ISPIN">     1</i>
    <i type="logical" name="LNONCOLLINEAR"> F  </i>
    <v name="MAGMOM">      1.00000000      1.00000000      1.00000000      1.00000000      1.00000000      1.00000000      1.00000000      1.00000000      1.00000000      1.00000000      1.00000000      1.00000000      1.00000000</v>
    <i name="NUPDOWN">     -1.00000000</i>
    <i type="logical" name="LSORBIT"> F  </i>
    <v name="SAXIS">      0.00000000      0.00000000      1.00000000</v>
    <i type="logical" name="LSPIRAL"> F  </i>
    <v name="QSPIRAL">      0.00000000      0.00000000      0.00000000</v>
    <i type="logical" name="LZEROZ"> F  </i>
   </separator>
   <separator name="electronic exchange-correlation" >
    <i type="logical" name="LASPH"> F  </i>
    <i type="logical" name="LMETAGGA"> F  </i>
   </separator>
   <separator name="electronic convergence" >
    <i type="int" name="NELM">    60</i>
    <i type="int" name="NELMDL">     0</i>
    <i type="int" name="NELMIN">     2</i>
    <i name="ENINI">    600.00000000</i>
    <separator name="electronic convergence detail" >
     <i type="logical" name="LDIAG"> T  </i>
     <i type="logical" name="LSUBROT"> F  </i>
     <i name="WEIMIN">      0.00000000</i>
     <i name="EBREAK">      0.00000125</i>
     <i name="DEPER">      0.30000000</i>
     <i type="int" name="NRMM">     4</i>
     <i name="TIME">      0.40000000</i>
    </separator>
   </separator>
   <separator name="electronic mixer" >
    <i name="AMIX">      0.40000000</i>
    <i name="BMIX">      1.00000000</i>
    <i name="AMIN">      0.10000000</i>
    <i name="AMIX_MAG">      1.60000000</i>
    <i name="BMIX_MAG">      1.00000000</i>
    <separator name="electronic mixer details" >
     <i type="int" name="IMIX">     4</i>
     <i type="logical" name="MIXFIRST"> F  </i>
     <i type="int" name="MAXMIX">   -45</i>
     <i name="WC">    100.00000000</i>
     <i type="int" name="INIMIX">     1</i>
     <i type="int" name="MIXPRE">     1</i>
     <i type="int" name="MREMOVE">     5</i>
    </separator>
   </separator>
   <separator name="electronic dipolcorrection" >
    <i type="logical" name="LDIPOL"> F  </i>
    <i type="logical" name="LMONO"> F  </i>
    <i type="int" name="IDIPOL">     0</i>
    <i name="EPSILON">      1.00000000</i>
    <v name="DIPOL">   -100.00000000   -100.00000000   -100.00000000</v>
    <i name="EFIELD">      0.00000000</i>
   </separator>
  </separator>
  <separator name="grids" >
   <i type="int" name="NGX">   120</i>
   <i type="int" name="NGY">   108</i>
   <i type="int" name="NGZ">   108</i>
   <i type="int" name="NGXF">   240</i>
   <i type="int" name="NGYF">   216</i>
   <i type="int" name="NGZF">   216</i>
   <i type="logical" name="ADDGRID"> F  </i>
  </separator>
  <separator name="ionic" >
   <i type="int" name="NSW">     0</i>
   <i type="int" name="IBRION">    -1</i>
   <i type="int" name="MDALGO">     0</i>
   <i type="int" name="ISIF">     2</i>
   <i name="PSTRESS">      0.00000000</i>
   <i name="EDIFFG">      0.00100000</i>
   <i type="int" name="NFREE">     0</i>
   <i name="POTIM">      0.50000000</i>
   <i name="SMASS">     -3.00000000</i>
   <i name="SCALEE">      1.00000000</i>
  </separator>
  <separator name="ionic md" >
   <i name="TEBEG">      0.00010000</i>
   <i name="TEEND">      0.00010000</i>
   <i type="int" name="NBLOCK">     1</i>
   <i type="int" name="KBLOCK">     1</i>
   <i type="int" name="NPACO">   256</i>
   <i name="APACO">     10.00000000</i>
  </separator>
  <separator name="symmetry" >
   <i type="int" name="ISYM">     2</i>
   <i name="SYMPREC">      0.00001000</i>
  </separator>
  <separator name="dos" >
   <i type="int" name="LORBIT">     0</i>
   <v name="RWIGS">     -1.00000000     -1.00000000     -1.00000000</v>
   <i type="int" name="NEDOS">   301</i>
   <i name="EMIN">     10.00000000</i>
   <i name="EMAX">    -10.00000000</i>
   <i name="EFERMI">      0.00000000</i>
  </separator>
  <separator name="writing" >
   <i type="int" name="NWRITE">     2</i>
   <i type="logical" name="LWAVE"> F  </i>
   <i type="logical" name="LDOWNSAMPLE"> F  </i>
   <i type="logical" name="LCHARG"> F  </i>
   <i type="logical" name="LPARD"> F  </i>
   <i type="logical" name="LVTOT"> F  </i>
   <i type="logical" name="LVHAR"> F  </i>
   <i type="logical" name="LELF"> F  </i>
   <i type="logical" name="LOPTICS"> F  </i>
   <v name="STM">      0.00000000      0.00000000      0.00000000      0.00000000      0.00000000      0.00000000      0.00000000</v>
  </separator>
  <separator name="performance" >
   <i type="int" name="NPAR">     4</i>
   <i type="int" name="NSIM">     4</i>
   <i type="int" name="NBLK">    -1</i>
   <i type="logical" name="LPLANE"> T  </i>
   <i type="logical" name="LSCALAPACK"> T  </i>
   <i type="logical" name="LSCAAWARE"> F  </i>
   <i type="logical" name="LSCALU"> F  </i>
   <i type="logical" name="LASYNC"> F  </i>
   <i type="logical" name="LORBITALREAL"> F  </i>
  </separator>
  <separator name="miscellaneous" >
   <i type="int" name="IDIOT">     3</i>
   <i type="int" name="PHON_NSTRUCT">    -1</i>
   <i type="logical" name="LMUSIC"> F  </i>
   <v name="POMASS">     14.00100000     12.01100000      1.00000000</v>
   <v name="DARWINR">      0.00000000      0.00000000      0.00000000</v>
   <v name="DARWINV">      1.00000000      1.00000000      1.00000000</v>
   <i type="logical" name="LCORR"> T  </i>
  </separator>
  <i type="logical" name="GGA_COMPAT"> T  </i>
  <i type="logical" name="LBERRY"> F  </i>
  <i type="int" name="ICORELEVEL">     0</i>
  <i type="logical" name="LDAU"> F  </i>
  <i type="int" name="I_CONSTRAINED_M">     0</i>
  <separator name="electronic exchange-correlation" >
   <i type="string" name="GGA">PE</i>
   <i type="int" name="VOSKOWN">     0</i>
   <i type="logical" name="LHFCALC"> F  </i>
   <i type="string" name="PRECFOCK"></i>
   <i type="logical" name="LSYMGRAD"> F  </i>
   <i type="logical" name="LHFONE"> F  </i>
   <i type="logical" name="LRHFCALC"> F  </i>
   <i type="logical" name="LTHOMAS"> F  </i>
   <i type="logical" name="LMODELHF"> F  </i>
   <i type="logical" name="LFOCKACE"> F  </i>
   <i name="ENCUT4O">     -1.00000000</i>
   <i type="int" name="EXXOEP">     0</i>
   <i type="int" name="FOURORBIT">     0</i>
   <i name="AEXX">      0.00000000</i>
   <i name="HFALPHA">      0.00000000</i>
   <i name="MCALPHA">      0.00000000</i>
   <i name="ALDAX">      1.00000000</i>
   <i name="AGGAX">      1.00000000</i>
   <i name="ALDAC">      1.00000000</i>
   <i name="AGGAC">      1.00000000</i>
   <i type="int" name="NKREDX">     1</i>
   <i type="int" name="NKREDY">     1</i>
   <i type="int" name="NKREDZ">     1</i>
   <i type="logical" name="SHIFTRED"> F  </i>
   <i type="logical" name="ODDONLY"> F  </i>
   <i type="logical" name="EVENONLY"> F  </i>
   <i type="int" name="LMAXFOCK">     0</i>
   <i type="int" name="NMAXFOCKAE">     0</i>
   <i type="logical" name="LFOCKAEDFT"> F  </i>
   <i name="HFSCREEN">      0.00000000</i>
   <i name="HFSCREENC">      0.00000000</i>
   <i type="int" name="NBANDSGWLOW">     0</i>
  </separator>
  <separator name="vdW DFT" >
   <i type="logical" name="LUSE_VDW"> F  </i>
   <i name="Zab_VDW">     -0.84910000</i>
   <i name="PARAM1">      0.12340000</i>
   <i name="PARAM2">      1.00000000</i>
   <i name="PARAM3">      0.00000000</i>
  </separator>
  <separator name="model GW" >
   <i type="int" name="MODEL_GW">     0</i>
   <i name="MODEL_EPS0">    263.94559323</i>
   <i name="MODEL_ALPHA">      1.00000000</i>
  </separator>
  <separator name="linear response parameters" >
   <i type="logical" name="LEPSILON"> F  </i>
   <i type="logical" name="LRPA"> F  </i>
   <i type="logical" name="LNABLA"> F  </i>
   <i type="logical" name="LVEL"> F  </i>
   <i name="CSHIFT">      0.10000000</i>
   <i name="OMEGAMAX">     -1.00000000</i>
   <i name="DEG_THRESHOLD">      0.00200000</i>
   <i name="RTIME">     -0.10000000</i>
   <i name="WPLASMAI">      0.00000000</i>
   <v name="DFIELD">      0.00000000      0.00000000      0.00000000</v>
   <v name="WPLASMA">      0.00000000      0.00000000      0.00000000      0.00000000      0.00000000      0.00000000      0.00000000      0.00000000      0.00000000</v>
  </separator>
  <separator name="orbital magnetization" >
   <i type="logical" name="NUCIND"> F  </i>
   <v name="MAGPOS">      0.00000000      0.00000000      0.00000000</v>
   <i type="logical" name="LNICSALL"> T  </i>
   <i type="logical" name="ORBITALMAG"> F  </i>
   <i type="logical" name="LMAGBLOCH"> F  </i>
   <i type="logical" name="LCHIMAG"> F  </i>
   <i type="logical" name="LGAUGE"> T  </i>
   <i type="int" name="MAGATOM">     0</i>
   <v name="MAGDIPOL">      0.00000000      0.00000000      0.00000000</v>
   <v name="AVECCONST">      0.00000000      0.00000000      0.00000000</v>
  </separator>
  <separator name="response functions" >
   <i type="logical" name="LFINITE_TEMPERATURE"> F  </i>
   <i type="logical" name="LADDER"> F  </i>
   <i type="logical" name="LRPAFORCE"> F  </i>
   <i type="logical" name="LFXC"> F  </i>
   <i type="logical" name="LHARTREE"> T  </i>
   <i type="int" name="IBSE">     0</i>
   <v type="int" name="KPOINT">    -1     0     0     0</v>
   <i type="logical" name="LTCTC"> F  </i>
   <i type="logical" name="LTCTE"> F  </i>
   <i type="logical" name="LTETE"> F  </i>
   <i type="logical" name="LTRIPLET"> F  </i>
   <i type="logical" name="LFXCEPS"> F  </i>
   <i type="logical" name="LFXHEG"> F  </i>
   <i type="int" name="NATURALO">     2</i>
   <i type="logical" name="LHOLEGF"> F  </i>
   <i type="logical" name="L2ORDER"> F  </i>
   <i type="logical" name="LDMP1"> F  </i>
   <i type="logical" name="LMP2LT"> F  </i>
   <i type="logical" name="LSMP2LT"> F  </i>
   <i type="logical" name="LGWLF"> F  </i>
   <i name="ENCUTGW">     -2.00000000</i>
   <i name="ENCUTGWSOFT">     -2.00000000</i>
   <i name="ENCUTLF">     -1.00000000</i>
   <i type="logical" name="LESF_SPLINES"> F  </i>
   <i type="int" name="LMAXMP2">    -1</i>
   <i name="SCISSOR">      0.00000000</i>
   <i type="int" name="NOMEGA">     0</i>
   <i type="int" name="NOMEGAR">     0</i>
   <i type="int" name="NBANDSGW">    -1</i>
   <i type="int" name="NBANDSO">    -1</i>
   <i type="int" name="NBANDSV">    -1</i>
   <i type="int" name="NELMGW">     1</i>
   <i type="int" name="NELMHF">     1</i>
   <i type="int" name="DIM">     3</i>
   <i type="int" name="IESPILON">     4</i>
   <i type="int" name="ANTIRES">     0</i>
   <i name="OMEGAMAX">    -30.00000000</i>
   <i name="OMEGAMIN">    -30.00000000</i>
   <i name="OMEGATL">   -200.00000000</i>
   <i type="int" name="OMEGAGRID">     0</i>
   <i name="CSHIFT">     -0.10000000</i>
   <i type="logical" name="LSELFENERGY"> F  </i>
   <i type="logical" name="LSPECTRAL"> F  </i>
   <i type="logical" name="LSPECTRALGW"> F  </i>
   <i type="logical" name="LSINGLES"> F  </i>
   <i type="logical" name="LFERMIGW"> F  </i>
   <i type="logical" name="ODDONLYGW"> F  </i>
   <i type="logical" name="EVENONLYGW"> F  </i>
   <i type="int" name="NKREDLFX">     1</i>
   <i type="int" name="NKREDLFY">     1</i>
   <i type="int" name="NKREDLFZ">     1</i>
   <i type="int" name="MAXMEM">  2800</i>
   <i type="int" name="TELESCOPE">     0</i>
   <i type="int" name="NTAUPAR">    -1</i>
   <i type="int" name="NOMEGAPAR">    -1</i>
   <i name="DAMP_NEWTON">      0.80000001</i>
   <i name="LAMBDA">      1.00000000</i>
  </separator>
  <separator name="External order field" >
   <i name="OFIELD_KAPPA">      0.00000000</i>
   <v name="OFIELD_K">      0.00000000      0.00000000      0.00000000</v>
   <i name="OFIELD_Q6_NEAR">      0.00000000</i>
   <i name="OFIELD_Q6_FAR">      0.00000000</i>
   <i name="OFIELD_A">      0.00000000</i>
  </separator>
  <separator name="optional k-points parameters" >
   <i type="int" name="KPOINTS_OPT_MODE">     1</i>
   <i type="logical" name="LKPOINTS_OPT"> F  </i>
  </separator>
 </parameters>
 <atominfo>
  <atoms>      13 </atoms>
  <types>       3 </types>
  <array name="atoms" >
   <dimension dim="1">ion</dimension>
   <field type="string">element</field>
   <field type="int">atomtype</field>
   <set>
    <rc><c>N </c><c>   1</c></rc>
    <rc><c>C </c><c>   2</c></rc>
    <rc><c>C </c><c>   2</c></rc>
    <rc><c>C </c><c>   2</c></rc>
    <rc><c>H </c><c>   3</c></rc>
    <rc><c>H </c><c>   3</c></rc>
    <rc><c>H </c><c>   3</c></rc>
    <rc><c>H </c><c>   3</c></rc>
    <rc><c>H </c><c>   3</c></rc>
    <rc><c>H </c><c>   3</c></rc>
    <rc><c>H </c><c>   3</c></rc>
    <rc><c>H </c><c>   3</c></rc>
    <rc><c>H </c><c>   3</c></rc>
   </set>
  </array>
  <array name="atomtypes" >
   <dimension dim="1">type</dimension>
   <field type="int">atomspertype</field>
   <field type="string">element</field>
   <field>mass</field>
   <field>valence</field>
   <field type="string">pseudopotential</field>
   <set>
    <rc><c>   1</c><c>N </c><c>     14.00100000</c><c>      5.00000000</c><c>  PAW_PBE N 08Apr2002                   </c></rc>
    <rc><c>   3</c><c>C </c><c>     12.01100000</c><c>      4.00000000</c><c>  PAW_PBE C 08Apr2002                   </c></rc>
    <rc><c>   9</c><c>H </c><c>      1.00000000</c><c>      1.00000000</c><c>  PAW_PBE H 15Jun2001                   </c></rc>
   </set>
  </array>
 </atominfo>
 <structure name="initialpos" >
  <crystal>
   <varray name="basis" >
    <v>      19.65580000       0.00000000       0.00000000 </v>
    <v>       0.00000000      17.32980000       0.00000000 </v>
    <v>       0.00000000       0.00000000      16.78890000 </v>
   </varray>
   <i name="volume">   5718.82118669 </i>
   <varray name="rec_basis" >
    <v>       0.05087557       0.00000000       0.00000000 </v>
    <v>       0.00000000       0.05770407       0.00000000 </v>
    <v>       0.00000000       0.00000000       0.05956316 </v>
   </varray>
  </crystal>
  <varray name="positions" >
   <v>       0.61962118       0.49308213       0.50033871 </v>
   <v>       0.48721135       0.46983624       0.50050781 </v>
   <v>       0.55232214       0.52404091       0.49892649 </v>
   <v>       0.41707129       0.50926483       0.50247065 </v>
   <v>       0.49491948       0.43055059       0.44870180 </v>
   <v>       0.49189508       0.43236663       0.55115771 </v>
   <v>       0.54921577       0.57059585       0.55235647 </v>
   <v>       0.54889211       0.56575695       0.44361739 </v>
   <v>       0.41066469       0.55934892       0.54440969 </v>
   <v>       0.41040939       0.53850106       0.44243989 </v>
   <v>       0.37624587       0.46780603       0.50946607 </v>
   <v>       0.63511248       0.45943782       0.45314289 </v>
   <v>       0.62336126       0.46160030       0.54879884 </v>
  </varray>
 </structure>
 <calculation>
  <scstep>
   <time name="dav">   10.31   10.34</time>
   <time name="total">   13.05   13.08</time>
   <energy>
    <i name="alphaZ">      0.47775637 </i>
    <i name="ewald">   1311.94847071 </i>
    <i name="hartreedc">  -1846.01913420 </i>
    <i name="XCdc">     79.85139783 </i>
    <i name="pawpsdc">    549.70511768 </i>
    <i name="pawaedc">   -552.68421925 </i>
    <i name="eentropy">     -0.00845366 </i>
    <i name="bandstr">   -201.68418148 </i>
    <i name="atom">    818.38106669 </i>
    <i name="e_fr_energy">    159.96782069 </i>
    <i name="e_wo_entrp">    159.97627435 </i>
    <i name="e_0_energy">    159.97204752 </i>
   </energy>
  </scstep>
  <scstep>
   <time name="dav">   11.48   11.48</time>
   <time name="total">   12.44   12.44</time>
   <energy>
    <i name="e_fr_energy">     23.33431101 </i>
    <i name="e_wo_entrp">     23.33625772 </i>
    <i name="e_0_energy">     23.33528437 </i>
   </energy>
  </scstep>
  <scstep>
   <time name="dav">    9.72    9.73</time>
   <time name="total">    9.84    9.85</time>
   <energy>
    <i name="e_fr_energy">    -63.63186498 </i>
    <i name="e_wo_entrp">    -63.63186498 </i>
    <i name="e_0_energy">    -63.63186498 </i>
   </energy>
  </scstep>
  <scstep>
   <time name="dav">    9.03    9.03</time>
   <time name="total">    9.33    9.34</time>
   <energy>
    <i name="e_fr_energy">    -75.78158671 </i>
    <i name="e_wo_entrp">    -75.78158671 </i>
    <i name="e_0_energy">    -75.78158671 </i>
   </energy>
  </scstep>
  <scstep>
   <time name="dav">    8.84    8.85</time>
   <time name="total">    9.91    9.92</time>
   <energy>
    <i name="e_fr_energy">    -76.11559482 </i>
    <i name="e_wo_entrp">    -76.11559482 </i>
    <i name="e_0_energy">    -76.11559482 </i>
   </energy>
  </scstep>
  <scstep>
   <time name="diag">    2.42    2.42</time>
   <time name="diis">    3.77    3.77</time>
   <time name="orth">    0.14    0.17</time>
   <time name="total">    9.34    9.38</time>
   <energy>
    <i name="e_fr_energy">    -69.66139469 </i>
    <i name="e_wo_entrp">    -69.66139469 </i>
    <i name="e_0_energy">    -69.66139469 </i>
   </energy>
  </scstep>
  <scstep>
   <time name="diag">    2.22    2.22</time>
   <time name="diis">    3.92    3.92</time>
   <time name="orth">    0.22    0.22</time>
   <time name="total">    9.32    9.32</time>
   <energy>
    <i name="e_fr_energy">    -68.58401921 </i>
    <i name="e_wo_entrp">    -68.58401921 </i>
    <i name="e_0_energy">    -68.58401921 </i>
   </energy>
  </scstep>
  <scstep>
   <time name="diag">    2.32    2.32</time>
   <time name="diis">    3.55    3.55</time>
   <time name="orth">    0.12    0.12</time>
   <time name="total">    8.94    8.94</time>
   <energy>
    <i name="e_fr_energy">    -68.39575358 </i>
    <i name="e_wo_entrp">    -68.39575358 </i>
    <i name="e_0_energy">    -68.39575358 </i>
   </energy>
  </scstep>
  <scstep>
   <time name="diag">    2.26    2.26</time>
   <time name="diis">    3.74    3.75</time>
   <time name="orth">    0.20    0.20</time>
   <time name="total">    9.50    9.50</time>
   <energy>
    <i name="e_fr_energy">    -68.25133425 </i>
    <i name="e_wo_entrp">    -68.25133425 </i>
    <i name="e_0_energy">    -68.25133425 </i>
   </energy>
  </scstep>
  <scstep>
   <time name="diag">    2.27    2.27</time>
   <time name="diis">    4.04    4.05</time>
   <time name="orth">    0.15    0.15</time>
   <time name="total">    9.49    9.50</time>
   <energy>
    <i name="e_fr_energy">    -68.26886515 </i>
    <i name="e_wo_entrp">    -68.26886515 </i>
    <i name="e_0_energy">    -68.26886515 </i>
   </energy>
  </scstep>
  <scstep>
   <time name="diag">    2.56    2.56</time>
   <time name="diis">    3.87    3.87</time>
   <time name="orth">    0.14    0.14</time>
   <time name="total">    9.82    9.82</time>
   <energy>
    <i name="e_fr_energy">    -68.25838612 </i>
    <i name="e_wo_entrp">    -68.25838612 </i>
    <i name="e_0_energy">    -68.25838612 </i>
   </energy>
  </scstep>
  <scstep>
   <time name="diag">    2.40    2.40</time>
   <time name="diis">    3.80    3.80</time>
   <time name="orth">    0.35    0.35</time>
   <time name="total">    9.58    9.59</time>
   <energy>
    <i name="e_fr_energy">    -68.25951727 </i>
    <i name="e_wo_entrp">    -68.25951727 </i>
    <i name="e_0_energy">    -68.25951727 </i>
   </energy>
  </scstep>
  <scstep>
   <time name="diag">    2.44    2.47</time>
   <time name="diis">    3.76    3.76</time>
   <time name="orth">    0.15    0.15</time>
   <time name="total">    9.62    9.66</time>
   <energy>
    <i name="e_fr_energy">    -68.26509206 </i>
    <i name="e_wo_entrp">    -68.26509206 </i>
    <i name="e_0_energy">    -68.26509206 </i>
   </energy>
  </scstep>
  <scstep>
   <time name="diag">    2.00    2.00</time>
   <time name="diis">    3.87    3.88</time>
   <time name="orth">    0.29    0.29</time>
   <time name="total">    9.51    9.52</time>
   <energy>
    <i name="e_fr_energy">    -68.26945486 </i>
    <i name="e_wo_entrp">    -68.26945486 </i>
    <i name="e_0_energy">    -68.26945486 </i>
   </energy>
  </scstep>
  <scstep>
   <time name="diag">    2.11    2.11</time>
   <time name="diis">    3.84    3.84</time>
   <time name="orth">    0.19    0.19</time>
   <time name="total">    9.52    9.53</time>
   <energy>
    <i name="e_fr_energy">    -68.27220318 </i>
    <i name="e_wo_entrp">    -68.27220318 </i>
    <i name="e_0_energy">    -68.27220318 </i>
   </energy>
  </scstep>
  <scstep>
   <time name="diag">    2.45    2.45</time>
   <time name="diis">    3.77    3.78</time>
   <time name="orth">    0.16    0.16</time>
   <time name="total">    9.59    9.59</time>
   <energy>
    <i name="e_fr_energy">    -68.27677138 </i>
    <i name="e_wo_entrp">    -68.27677138 </i>
    <i name="e_0_energy">    -68.27677138 </i>
   </energy>
  </scstep>
  <scstep>
   <time name="diag">    2.35    2.35</time>
   <time name="diis">    3.33    3.33</time>
   <time name="orth">    0.26    0.26</time>
   <time name="total">    9.36    9.39</time>
   <energy>
    <i name="e_fr_energy">    -68.27767947 </i>
    <i name="e_wo_entrp">    -68.27767947 </i>
    <i name="e_0_energy">    -68.27767947 </i>
   </energy>
  </scstep>
  <scstep>
   <time name="diag">    2.34    2.34</time>
   <time name="diis">    3.44    3.44</time>
   <time name="orth">    0.24    0.24</time>
   <time name="total">    9.30    9.32</time>
   <energy>
    <i name="e_fr_energy">    -68.27924684 </i>
    <i name="e_wo_entrp">    -68.27924684 </i>
    <i name="e_0_energy">    -68.27924684 </i>
   </energy>
  </scstep>
  <scstep>
   <time name="diag">    2.17    2.17</time>
   <time name="diis">    3.14    3.17</time>
   <time name="orth">    0.20    0.20</time>
   <time name="total">    7.59    7.63</time>
   <energy>
    <i name="alphaZ">      0.47775637 </i>
    <i name="ewald">   1311.94847071 </i>
    <i name="hartreedc">  -1976.49341979 </i>
    <i name="XCdc">     86.55902578 </i>
    <i name="pawpsdc">   1755.82472018 </i>
    <i name="pawaedc">  -1759.52057553 </i>
    <i name="eentropy">     -0.00000000 </i>
    <i name="bandstr">   -305.45637892 </i>
    <i name="atom">    818.38106669 </i>
    <i name="e_fr_energy">    -68.27933452 </i>
    <i name="e_wo_entrp">    -68.27933452 </i>
    <i name="e_0_energy">    -68.27933452 </i>
   </energy>
  </scstep>
  <structure>
   <crystal>
    <varray name="basis" >
     <v>      19.65580000       0.00000000       0.00000000 </v>
     <v>       0.00000000      17.32980000       0.00000000 </v>
     <v>       0.00000000       0.00000000      16.78890000 </v>
    </varray>
    <i name="volume">   5718.82118669 </i>
    <varray name="rec_basis" >
     <v>       0.05087557       0.00000000       0.00000000 </v>
     <v>       0.00000000       0.05770407       0.00000000 </v>
     <v>       0.00000000       0.00000000       0.05956316 </v>
    </varray>
   </crystal>
   <varray name="positions" >
    <v>       0.61962118       0.49308213       0.50033871 </v>
    <v>       0.48721135       0.46983624       0.50050781 </v>
    <v>       0.55232214       0.52404091       0.49892649 </v>
    <v>       0.41707129       0.50926483       0.50247065 </v>
    <v>       0.49491948       0.43055059       0.44870180 </v>
    <v>       0.49189508       0.43236663       0.55115771 </v>
    <v>       0.54921577       0.57059585       0.55235647 </v>
    <v>       0.54889211       0.56575695       0.44361739 </v>
    <v>       0.41066469       0.55934892       0.54440969 </v>
    <v>       0.41040939       0.53850106       0.44243989 </v>
    <v>       0.37624587       0.46780603       0.50946607 </v>
    <v>       0.63511248       0.45943782       0.45314289 </v>
    <v>       0.62336126       0.46160030       0.54879884 </v>
   </varray>
  </structure>
  <varray name="forces" >
   <v>       0.36678563       0.06699670      -0.99417505 </v>
   <v>       1.19607645       0.51947725      -0.34871320 </v>
   <v>      -1.71644899       3.49501087      -0.30136493 </v>
   <v>       0.71201192       1.52909712      -1.58059381 </v>
   <v>      -0.52825020       0.27310553       0.10771129 </v>
   <v>       0.17478638      -0.53172696       0.90436234 </v>
   <v>      -0.02747245      -1.70178472      -1.51505666 </v>
   <v>      -0.08572533      -1.23548832       1.28142288 </v>
   <v>       0.34660543      -0.90345926      -0.03291718 </v>
   <v>      -0.16242216      -0.49811315       0.71033204 </v>
   <v>      -0.32676719      -0.20942737       0.15932524 </v>
   <v>      -0.52496620       0.30417880       0.13562668 </v>
   <v>       0.57578671      -1.10786648       1.47404038 </v>
  </varray>
  <varray name="stress" >
   <v>      -0.58675785      -0.15359273       0.55616448 </v>
   <v>      -0.15359273      -0.70309634      -0.66817333 </v>
   <v>       0.55616448      -0.66817333      -0.45591304 </v>
  </varray>
  <energy>
   <i name="e_fr_energy">    -68.37591755 </i>
   <i name="e_wo_entrp">    -68.37591755 </i>
   <i name="e_0_energy">    -68.37591755 </i>
  </energy>
  <time name="totalsc">  194.02  194.33</time>
  <eigenvalues>
   <array>
    <dimension dim="1">band</dimension>
    <dimension dim="2">kpoint</dimension>
    <dimension dim="3">spin</dimension>
    <field>eigene</field>
    <field>occ</field>
    <set>
     <set comment="spin 1">
      <set comment="kpoint 1">
       <r>  -22.0547    1.0000 </r>
       <r>  -18.6839    1.0000 </r>
       <r>  -15.9718    1.0000 </r>
       <r>  -14.2992    1.0000 </r>
       <r>  -12.1890    1.0000 </r>
       <r>  -10.9593    1.0000 </r>
       <r>  -10.4360    1.0000 </r>
       <r>   -9.7949    1.0000 </r>
       <r>   -9.1688    1.0000 </r>
       <r>   -8.2759    1.0000 </r>
       <r>   -8.2098    1.0000 </r>
       <r>   -7.3439    1.0000 </r>
       <r>   -5.3409    1.0000 </r>
       <r>   -0.5431    0.0000 </r>
       <r>   -0.2260    0.0000 </r>
       <r>    0.0582    0.0000 </r>
       <r>    0.0803    0.0000 </r>
       <r>    0.1022    0.0000 </r>
       <r>    0.4197    0.0000 </r>
       <r>    0.6377    0.0000 </r>
      </set>
     </set>
    </set>
   </array>
  </eigenvalues>
  <separator name="orbital magnetization" >
   <v name="MAGDIPOLOUT">      0.00000000      0.00000000      0.00000000</v>
  </separator>
  <dos>
   <i name="efermi">     -5.04531328 </i>
   <total>
    <array>
     <dimension dim="1">gridpoints</dimension>
     <dimension dim="2">spin</dimension>
     <field>energy</field>
     <field>total</field>
     <field>integrated</field>
     <set>
      <set comment="spin 1">
       <r>   -23.1893     0.0000     0.0000 </r>
       <r>   -23.1061     0.0000     0.0000 </r>
       <r>   -23.0229     0.0000     0.0000 </r>
       <r>   -22.9397     0.0000     0.0000 </r>
       <r>   -22.8565     0.0000     0.0000 </r>
       <r>   -22.7733     0.0000     0.0000 </r>
       <r>   -22.6901     0.0000     0.0000 </r>
       <r>   -22.6069     0.0000     0.0000 </r>
       <r>   -22.5236     0.0000     0.0000 </r>
       <r>   -22.4404     0.0000     0.0000 </r>
       <r>   -22.3572     0.0000     0.0000 </r>
       <r>   -22.2740     0.0000     0.0000 </r>
       <r>   -22.1908     0.0014     0.0001 </r>
       <r>   -22.1076     1.6118     0.1342 </r>
       <r>   -22.0244    17.7110     1.6079 </r>
       <r>   -21.9412     4.6966     1.9987 </r>
       <r>   -21.8580     0.0160     2.0000 </r>
       <r>   -21.7748     0.0000     2.0000 </r>
       <r>   -21.6916     0.0000     2.0000 </r>
       <r>   -21.6084     0.0000     2.0000 </r>
       <r>   -21.5252     0.0000     2.0000 </r>
       <r>   -21.4420     0.0000     2.0000 </r>
       <r>   -21.3588     0.0000     2.0000 </r>
       <r>   -21.2756     0.0000     2.0000 </r>
       <r>   -21.1924     0.0000     2.0000 </r>
       <r>   -21.1092     0.0000     2.0000 </r>
       <r>   -21.0260     0.0000     2.0000 </r>
       <r>   -20.9427     0.0000     2.0000 </r>
       <r>   -20.8595     0.0000     2.0000 </r>
       <r>   -20.7763     0.0000     2.0000 </r>
       <r>   -20.6931     0.0000     2.0000 </r>
       <r>   -20.6099     0.0000     2.0000 </r>
       <r>   -20.5267     0.0000     2.0000 </r>
       <r>   -20.4435     0.0000     2.0000 </r>
       <r>   -20.3603     0.0000     2.0000 </r>
       <r>   -20.2771     0.0000     2.0000 </r>
       <r>   -20.1939     0.0000     2.0000 </r>
       <r>   -20.1107     0.0000     2.0000 </r>
       <r>   -20.0275     0.0000     2.0000 </r>
       <r>   -19.9443     0.0000     2.0000 </r>
       <r>   -19.8611     0.0000     2.0000 </r>
       <r>   -19.7779     0.0000     2.0000 </r>
       <r>   -19.6947     0.0000     2.0000 </r>
       <r>   -19.6115     0.0000     2.0000 </r>
       <r>   -19.5283     0.0000     2.0000 </r>
       <r>   -19.4450     0.0000     2.0000 </r>
       <r>   -19.3618     0.0000     2.0000 </r>
       <r>   -19.2786     0.0000     2.0000 </r>
       <r>   -19.1954     0.0000     2.0000 </r>
       <r>   -19.1122     0.0000     2.0000 </r>
       <r>   -19.0290     0.0000     2.0000 </r>
       <r>   -18.9458     0.0000     2.0000 </r>
       <r>   -18.8626     0.0000     2.0000 </r>
       <r>   -18.7794     0.0834     2.0069 </r>
       <r>   -18.6962     8.6776     2.7290 </r>
       <r>   -18.6130    14.7380     3.9552 </r>
       <r>   -18.5298     0.5378     4.0000 </r>
       <r>   -18.4466     0.0002     4.0000 </r>
       <r>   -18.3634     0.0000     4.0000 </r>
       <r>   -18.2802     0.0000     4.0000 </r>
       <r>   -18.1970     0.0000     4.0000 </r>
       <r>   -18.1138     0.0000     4.0000 </r>
       <r>   -18.0306     0.0000     4.0000 </r>
       <r>   -17.9474     0.0000     4.0000 </r>
       <r>   -17.8641     0.0000     4.0000 </r>
       <r>   -17.7809     0.0000     4.0000 </r>
       <r>   -17.6977     0.0000     4.0000 </r>
       <r>   -17.6145     0.0000     4.0000 </r>
       <r>   -17.5313     0.0000     4.0000 </r>
       <r>   -17.4481     0.0000     4.0000 </r>
       <r>   -17.3649     0.0000     4.0000 </r>
       <r>   -17.2817     0.0000     4.0000 </r>
       <r>   -17.1985     0.0000     4.0000 </r>
       <r>   -17.1153     0.0000     4.0000 </r>
       <r>   -17.0321     0.0000     4.0000 </r>
       <r>   -16.9489     0.0000     4.0000 </r>
       <r>   -16.8657     0.0000     4.0000 </r>
       <r>   -16.7825     0.0000     4.0000 </r>
       <r>   -16.6993     0.0000     4.0000 </r>
       <r>   -16.6161     0.0000     4.0000 </r>
       <r>   -16.5329     0.0000     4.0000 </r>
       <r>   -16.4497     0.0000     4.0000 </r>
       <r>   -16.3664     0.0000     4.0000 </r>
       <r>   -16.2832     0.0000     4.0000 </r>
       <r>   -16.2000     0.0000     4.0000 </r>
       <r>   -16.1168     0.0005     4.0000 </r>
       <r>   -16.0336     0.9627     4.0801 </r>
       <r>   -15.9504    16.5099     5.4539 </r>
       <r>   -15.8672     6.5264     5.9969 </r>
       <r>   -15.7840     0.0373     6.0000 </r>
       <r>   -15.7008     0.0000     6.0000 </r>
       <r>   -15.6176     0.0000     6.0000 </r>
       <r>   -15.5344     0.0000     6.0000 </r>
       <r>   -15.4512     0.0000     6.0000 </r>
       <r>   -15.3680     0.0000     6.0000 </r>
       <r>   -15.2848     0.0000     6.0000 </r>
       <r>   -15.2016     0.0000     6.0000 </r>
       <r>   -15.1184     0.0000     6.0000 </r>
       <r>   -15.0352     0.0000     6.0000 </r>
       <r>   -14.9520     0.0000     6.0000 </r>
       <r>   -14.8688     0.0000     6.0000 </r>
       <r>   -14.7855     0.0000     6.0000 </r>
       <r>   -14.7023     0.0000     6.0000 </r>
       <r>   -14.6191     0.0000     6.0000 </r>
       <r>   -14.5359     0.0000     6.0000 </r>
       <r>   -14.4527     0.0002     6.0000 </r>
       <r>   -14.3695     0.5630     6.0469 </r>
       <r>   -14.2863    14.8864     7.2855 </r>
       <r>   -14.2031     8.5088     7.9935 </r>
       <r>   -14.1199     0.0786     8.0000 </r>
       <r>   -14.0367     0.0000     8.0000 </r>
       <r>   -13.9535     0.0000     8.0000 </r>
       <r>   -13.8703     0.0000     8.0000 </r>
       <r>   -13.7871     0.0000     8.0000 </r>
       <r>   -13.7039     0.0000     8.0000 </r>
       <r>   -13.6207     0.0000     8.0000 </r>
       <r>   -13.5375     0.0000     8.0000 </r>
       <r>   -13.4543     0.0000     8.0000 </r>
       <r>   -13.3711     0.0000     8.0000 </r>
       <r>   -13.2878     0.0000     8.0000 </r>
       <r>   -13.2046     0.0000     8.0000 </r>
       <r>   -13.1214     0.0000     8.0000 </r>
       <r>   -13.0382     0.0000     8.0000 </r>
       <r>   -12.9550     0.0000     8.0000 </r>
       <r>   -12.8718     0.0000     8.0000 </r>
       <r>   -12.7886     0.0000     8.0000 </r>
       <r>   -12.7054     0.0000     8.0000 </r>
       <r>   -12.6222     0.0000     8.0000 </r>
       <r>   -12.5390     0.0000     8.0000 </r>
       <r>   -12.4558     0.0000     8.0000 </r>
       <r>   -12.3726     0.0000     8.0000 </r>
       <r>   -12.2894     0.0543     8.0045 </r>
       <r>   -12.2062     7.4789     8.6268 </r>
       <r>   -12.1230    15.7600     9.9381 </r>
       <r>   -12.0398     0.7434    10.0000 </r>
       <r>   -11.9566     0.0003    10.0000 </r>
       <r>   -11.8734     0.0000    10.0000 </r>
       <r>   -11.7902     0.0000    10.0000 </r>
       <r>   -11.7069     0.0000    10.0000 </r>
       <r>   -11.6237     0.0000    10.0000 </r>
       <r>   -11.5405     0.0000    10.0000 </r>
       <r>   -11.4573     0.0000    10.0000 </r>
       <r>   -11.3741     0.0000    10.0000 </r>
       <r>   -11.2909     0.0000    10.0000 </r>
       <r>   -11.2077     0.0000    10.0000 </r>
       <r>   -11.1245     0.0000    10.0000 </r>
       <r>   -11.0413     0.2451    10.0204 </r>
       <r>   -10.9581    12.1040    11.0275 </r>
       <r>   -10.8749    11.4840    11.9831 </r>
       <r>   -10.7917     0.2036    12.0000 </r>
       <r>   -10.7085     0.0000    12.0000 </r>
       <r>   -10.6253     0.0000    12.0000 </r>
       <r>   -10.5421     0.0326    12.0027 </r>
       <r>   -10.4589     6.2002    12.5186 </r>
       <r>   -10.3757    16.7507    13.9123 </r>
       <r>   -10.2925     1.0529    14.0000 </r>
       <r>   -10.2092     0.0006    14.0000 </r>
       <r>   -10.1260     0.0000    14.0000 </r>
       <r>   -10.0428     0.0000    14.0000 </r>
       <r>    -9.9596     0.0000    14.0000 </r>
       <r>    -9.8764     0.2530    14.0211 </r>
       <r>    -9.7932    12.2097    15.0370 </r>
       <r>    -9.7100    11.3771    15.9836 </r>
       <r>    -9.6268     0.1972    16.0000 </r>
       <r>    -9.5436     0.0000    16.0000 </r>
       <r>    -9.4604     0.0000    16.0000 </r>
       <r>    -9.3772     0.0000    16.0000 </r>
       <r>    -9.2940     0.0048    16.0004 </r>
       <r>    -9.2108     2.8192    16.2350 </r>
       <r>    -9.1276    18.2838    17.7563 </r>
       <r>    -9.0444     2.9239    17.9996 </r>
       <r>    -8.9612     0.0052    18.0000 </r>
       <r>    -8.8780     0.0000    18.0000 </r>
       <r>    -8.7948     0.0000    18.0000 </r>
       <r>    -8.7116     0.0000    18.0000 </r>
       <r>    -8.6283     0.0000    18.0000 </r>
       <r>    -8.5451     0.0000    18.0000 </r>
       <r>    -8.4619     0.0000    18.0000 </r>
       <r>    -8.3787     0.0438    18.0036 </r>
       <r>    -8.2955     7.1066    18.5950 </r>
       <r>    -8.2123    27.3499    20.8706 </r>
       <r>    -8.1291    13.3023    21.9774 </r>
       <r>    -8.0459     0.2711    22.0000 </r>
       <r>    -7.9627     0.0000    22.0000 </r>
       <r>    -7.8795     0.0000    22.0000 </r>
       <r>    -7.7963     0.0000    22.0000 </r>
       <r>    -7.7131     0.0000    22.0000 </r>
       <r>    -7.6299     0.0000    22.0000 </r>
       <r>    -7.5467     0.0000    22.0000 </r>
       <r>    -7.4635     0.0087    22.0007 </r>
       <r>    -7.3803     3.6438    22.3039 </r>
       <r>    -7.2971    18.1602    23.8149 </r>
       <r>    -7.2139     2.2214    23.9998 </r>
       <r>    -7.1306     0.0028    24.0000 </r>
       <r>    -7.0474     0.0000    24.0000 </r>
       <r>    -6.9642     0.0000    24.0000 </r>
       <r>    -6.8810     0.0000    24.0000 </r>
       <r>    -6.7978     0.0000    24.0000 </r>
       <r>    -6.7146     0.0000    24.0000 </r>
       <r>    -6.6314     0.0000    24.0000 </r>
       <r>    -6.5482     0.0000    24.0000 </r>
       <r>    -6.4650     0.0000    24.0000 </r>
       <r>    -6.3818     0.0000    24.0000 </r>
       <r>    -6.2986     0.0000    24.0000 </r>
       <r>    -6.2154     0.0000    24.0000 </r>
       <r>    -6.1322     0.0000    24.0000 </r>
       <r>    -6.0490     0.0000    24.0000 </r>
       <r>    -5.9658     0.0000    24.0000 </r>
       <r>    -5.8826     0.0000    24.0000 </r>
       <r>    -5.7994     0.0000    24.0000 </r>
       <r>    -5.7162     0.0000    24.0000 </r>
       <r>    -5.6330     0.0000    24.0000 </r>
       <r>    -5.5497     0.0000    24.0000 </r>
       <r>    -5.4665     0.0046    24.0004 </r>
       <r>    -5.3833     2.7635    24.2303 </r>
       <r>    -5.3001    18.2816    25.7514 </r>
       <r>    -5.2169     2.9818    25.9995 </r>
       <r>    -5.1337     0.0054    26.0000 </r>
       <r>    -5.0505     0.0000    26.0000 </r>
       <r>    -4.9673     0.0000    26.0000 </r>
       <r>    -4.8841     0.0000    26.0000 </r>
       <r>    -4.8009     0.0000    26.0000 </r>
       <r>    -4.7177     0.0000    26.0000 </r>
       <r>    -4.6345     0.0000    26.0000 </r>
       <r>    -4.5513     0.0000    26.0000 </r>
       <r>    -4.4681     0.0000    26.0000 </r>
       <r>    -4.3849     0.0000    26.0000 </r>
       <r>    -4.3017     0.0000    26.0000 </r>
       <r>    -4.2185     0.0000    26.0000 </r>
       <r>    -4.1353     0.0000    26.0000 </r>
       <r>    -4.0520     0.0000    26.0000 </r>
       <r>    -3.9688     0.0000    26.0000 </r>
       <r>    -3.8856     0.0000    26.0000 </r>
       <r>    -3.8024     0.0000    26.0000 </r>
       <r>    -3.7192     0.0000    26.0000 </r>
       <r>    -3.6360     0.0000    26.0000 </r>
       <r>    -3.5528     0.0000    26.0000 </r>
       <r>    -3.4696     0.0000    26.0000 </r>
       <r>    -3.3864     0.0000    26.0000 </r>
       <r>    -3.3032     0.0000    26.0000 </r>
       <r>    -3.2200     0.0000    26.0000 </r>
       <r>    -3.1368     0.0000    26.0000 </r>
       <r>    -3.0536     0.0000    26.0000 </r>
       <r>    -2.9704     0.0000    26.0000 </r>
       <r>    -2.8872     0.0000    26.0000 </r>
       <r>    -2.8040     0.0000    26.0000 </r>
       <r>    -2.7208     0.0000    26.0000 </r>
       <r>    -2.6376     0.0000    26.0000 </r>
       <r>    -2.5544     0.0000    26.0000 </r>
       <r>    -2.4711     0.0000    26.0000 </r>
       <r>    -2.3879     0.0000    26.0000 </r>
       <r>    -2.3047     0.0000    26.0000 </r>
       <r>    -2.2215     0.0000    26.0000 </r>
       <r>    -2.1383     0.0000    26.0000 </r>
       <r>    -2.0551     0.0000    26.0000 </r>
       <r>    -1.9719     0.0000    26.0000 </r>
       <r>    -1.8887     0.0000    26.0000 </r>
       <r>    -1.8055     0.0000    26.0000 </r>
       <r>    -1.7223     0.0000    26.0000 </r>
       <r>    -1.6391     0.0000    26.0000 </r>
       <r>    -1.5559     0.0000    26.0000 </r>
       <r>    -1.4727     0.0000    26.0000 </r>
       <r>    -1.3895     0.0000    26.0000 </r>
       <r>    -1.3063     0.0000    26.0000 </r>
       <r>    -1.2231     0.0000    26.0000 </r>
       <r>    -1.1399     0.0000    26.0000 </r>
       <r>    -1.0567     0.0000    26.0000 </r>
       <r>    -0.9734     0.0000    26.0000 </r>
       <r>    -0.8902     0.0000    26.0000 </r>
       <r>    -0.8070     0.0000    26.0000 </r>
       <r>    -0.7238     0.0000    26.0000 </r>
       <r>    -0.6406     0.0698    26.0058 </r>
       <r>    -0.5574     8.1683    26.6855 </r>
       <r>    -0.4742    15.1814    27.9486 </r>
       <r>    -0.3910     0.6172    28.0000 </r>
       <r>    -0.3078     0.2487    28.0207 </r>
       <r>    -0.2246    12.1496    29.0316 </r>
       <r>    -0.1414    11.4379    29.9833 </r>
       <r>    -0.0582     0.2140    30.0011 </r>
       <r>     0.0250     5.9427    30.4956 </r>
       <r>     0.1082    48.7154    34.5489 </r>
       <r>     0.1914    17.2779    35.9866 </r>
       <r>     0.2746     0.1620    36.0000 </r>
       <r>     0.3578     0.9628    36.0802 </r>
       <r>     0.4410    16.5102    37.4539 </r>
       <r>     0.5242     6.5421    37.9982 </r>
       <r>     0.6075     4.7340    38.3921 </r>
       <r>     0.6907    17.7110    39.8658 </r>
       <r>     0.7739     1.6118    39.9999 </r>
       <r>     0.8571     0.0014    40.0000 </r>
       <r>     0.9403     0.0000    40.0000 </r>
       <r>     1.0235     0.0000    40.0000 </r>
       <r>     1.1067     0.0000    40.0000 </r>
       <r>     1.1899     0.0000    40.0000 </r>
       <r>     1.2731     0.0000    40.0000 </r>
       <r>     1.3563     0.0000    40.0000 </r>
       <r>     1.4395     0.0000    40.0000 </r>
       <r>     1.5227     0.0000    40.0000 </r>
       <r>     1.6059     0.0000    40.0000 </r>
       <r>     1.6891     0.0000    40.0000 </r>
       <r>     1.7723     0.0000    40.0000 </r>
      </set>
     </set>
    </array>
   </total>
  </dos>
 </calculation>
 <structure name="finalpos" >
  <crystal>
   <varray name="basis" >
    <v>      19.65580000       0.00000000       0.00000000 </v>
    <v>       0.00000000      17.32980000       0.00000000 </v>
    <v>       0.00000000       0.00000000      16.78890000 </v>
   </varray>
   <i name="volume">   5718.82118669 </i>
   <varray name="rec_basis" >
    <v>       0.05087557       0.00000000       0.00000000 </v>
    <v>       0.00000000       0.05770407       0.00000000 </v>
    <v>       0.00000000       0.00000000       0.05956316 </v>
   </varray>
  </crystal>
  <varray name="positions" >
   <v>       0.61962118       0.49308213       0.50033871 </v>
   <v>       0.48721135       0.46983624       0.50050781 </v>
   <v>       0.55232214       0.52404091       0.49892649 </v>
   <v>       0.41707129       0.50926483       0.50247065 </v>
   <v>       0.49491948       0.43055059       0.44870180 </v>
   <v>       0.49189508       0.43236663       0.55115771 </v>
   <v>       0.54921577       0.57059585       0.55235647 </v>
   <v>       0.54889211       0.56575695       0.44361739 </v>
   <v>       0.41066469       0.55934892       0.54440969 </v>
   <v>       0.41040939       0.53850106       0.44243989 </v>
   <v>       0.37624587       0.46780603       0.50946607 </v>
   <v>       0.63511248       0.45943782       0.45314289 </v>
   <v>       0.62336126       0.46160030       0.54879884 </v>
  </varray>
 </structure>
</modeling>
