  17  17   0   0
  0.2149333E+03  0.1540225E-08  0.1540225E-08  0.1540225E-08  0.5000000E-15
  1.000000000000000E-004
  CAR 
 unknown system                          
      1.96226739    -23.56599735  301     -5.52070522      1.00000000
    -23.566  0.0000E+00  0.0000E+00
    -23.481  0.0000E+00  0.0000E+00
    -23.396  0.0000E+00  0.0000E+00
    -23.311  0.0000E+00  0.0000E+00
    -23.226  0.0000E+00  0.0000E+00
    -23.141  0.0000E+00  0.0000E+00
    -23.055  0.0000E+00  0.0000E+00
    -22.970  0.0000E+00  0.0000E+00
    -22.885  0.0000E+00  0.0000E+00
    -22.800  0.0000E+00  0.0000E+00
    -22.715  0.0000E+00  0.0000E+00
    -22.630  0.2609E-08  0.2220E-09
    -22.545  0.9638E-03  0.8201E-04
    -22.460  0.1475E+01  0.1256E+00
    -22.375  0.1754E+02  0.1619E+01
    -22.290  0.4471E+01  0.1999E+01
    -22.204  0.1211E-01  0.2000E+01
    -22.119  0.1503E-06  0.2000E+01
    -22.034  0.5219E-14  0.2000E+01
    -21.949  0.0000E+00  0.2000E+01
    -21.864  0.0000E+00  0.2000E+01
    -21.779  0.0000E+00  0.2000E+01
    -21.694  0.0000E+00  0.2000E+01
    -21.609  0.0000E+00  0.2000E+01
    -21.524  0.0000E+00  0.2000E+01
    -21.439  0.0000E+00  0.2000E+01
    -21.354  0.0000E+00  0.2000E+01
    -21.268  0.0000E+00  0.2000E+01
    -21.183  0.0000E+00  0.2000E+01
    -21.098  0.0000E+00  0.2000E+01
    -21.013  0.0000E+00  0.2000E+01
    -20.928  0.0000E+00  0.2000E+01
    -20.843  0.0000E+00  0.2000E+01
    -20.758  0.0000E+00  0.2000E+01
    -20.673  0.0000E+00  0.2000E+01
    -20.588  0.0000E+00  0.2000E+01
    -20.503  0.0000E+00  0.2000E+01
    -20.418  0.0000E+00  0.2000E+01
    -20.332  0.0000E+00  0.2000E+01
    -20.247  0.1914E-08  0.2000E+01
    -20.162  0.7897E-03  0.2000E+01
    -20.077  0.1342E+01  0.2114E+01
    -19.992  0.1750E+02  0.3604E+01
    -19.907  0.1525E+02  0.4902E+01
    -19.822  0.1265E+02  0.5978E+01
    -19.737  0.2624E+00  0.6000E+01
    -19.652  0.3187E-04  0.6000E+01
    -19.567  0.1484E-10  0.6000E+01
    -19.481  0.0000E+00  0.6000E+01
    -19.396  0.0000E+00  0.6000E+01
    -19.311  0.0000E+00  0.6000E+01
    -19.226  0.0000E+00  0.6000E+01
    -19.141  0.0000E+00  0.6000E+01
    -19.056  0.0000E+00  0.6000E+01
    -18.971  0.0000E+00  0.6000E+01
    -18.886  0.0000E+00  0.6000E+01
    -18.801  0.0000E+00  0.6000E+01
    -18.716  0.0000E+00  0.6000E+01
    -18.631  0.0000E+00  0.6000E+01
    -18.545  0.0000E+00  0.6000E+01
    -18.460  0.0000E+00  0.6000E+01
    -18.375  0.0000E+00  0.6000E+01
    -18.290  0.0000E+00  0.6000E+01
    -18.205  0.4969E-08  0.6000E+01
    -18.120  0.1455E-02  0.6000E+01
    -18.035  0.1787E+01  0.6152E+01
    -17.950  0.1784E+02  0.7670E+01
    -17.865  0.3864E+01  0.7999E+01
    -17.780  0.8458E-02  0.8000E+01
    -17.694  0.8332E-07  0.8000E+01
    -17.609  0.2609E-14  0.8000E+01
    -17.524  0.0000E+00  0.8000E+01
    -17.439  0.0000E+00  0.8000E+01
    -17.354  0.0000E+00  0.8000E+01
    -17.269  0.0000E+00  0.8000E+01
    -17.184  0.0000E+00  0.8000E+01
    -17.099  0.0000E+00  0.8000E+01
    -17.014  0.0000E+00  0.8000E+01
    -16.929  0.0000E+00  0.8000E+01
    -16.844  0.0000E+00  0.8000E+01
    -16.758  0.0000E+00  0.8000E+01
    -16.673  0.0000E+00  0.8000E+01
    -16.588  0.0000E+00  0.8000E+01
    -16.503  0.0000E+00  0.8000E+01
    -16.418  0.0000E+00  0.8000E+01
    -16.333  0.0000E+00  0.8000E+01
    -16.248  0.1444E-08  0.8000E+01
    -16.163  0.6584E-03  0.8000E+01
    -16.078  0.1231E+01  0.8105E+01
    -15.993  0.1719E+02  0.9567E+01
    -15.908  0.5067E+01  0.9999E+01
    -15.822  0.1663E-01  0.1000E+02
    -15.737  0.2543E-06  0.1000E+02
    -15.652  0.1566E-13  0.1000E+02
    -15.567  0.6948E-11  0.1000E+02
    -15.482  0.1905E-04  0.1000E+02
    -15.397  0.1986E+00  0.1002E+02
    -15.312  0.1172E+02  0.1101E+02
    -15.227  0.1140E+02  0.1198E+02
    -15.142  0.1800E+00  0.1200E+02
    -15.057  0.1591E-04  0.1200E+02
    -14.971  0.5334E-11  0.1200E+02
    -14.886  0.0000E+00  0.1200E+02
    -14.801  0.0000E+00  0.1200E+02
    -14.716  0.0000E+00  0.1200E+02
    -14.631  0.0000E+00  0.1200E+02
    -14.546  0.0000E+00  0.1200E+02
    -14.461  0.0000E+00  0.1200E+02
    -14.376  0.0000E+00  0.1200E+02
    -14.291  0.0000E+00  0.1200E+02
    -14.206  0.0000E+00  0.1200E+02
    -14.121  0.0000E+00  0.1200E+02
    -14.035  0.0000E+00  0.1200E+02
    -13.950  0.0000E+00  0.1200E+02
    -13.865  0.0000E+00  0.1200E+02
    -13.780  0.0000E+00  0.1200E+02
    -13.695  0.0000E+00  0.1200E+02
    -13.610  0.0000E+00  0.1200E+02
    -13.525  0.0000E+00  0.1200E+02
    -13.440  0.0000E+00  0.1200E+02
    -13.355  0.0000E+00  0.1200E+02
    -13.270  0.0000E+00  0.1200E+02
    -13.185  0.4457E-08  0.1200E+02
    -13.099  0.1357E-02  0.1200E+02
    -13.014  0.1741E+01  0.1215E+02
    -12.929  0.2189E+02  0.1401E+02
    -12.844  0.2170E+02  0.1586E+02
    -12.759  0.1670E+01  0.1600E+02
    -12.674  0.1242E-02  0.1600E+02
    -12.589  0.3878E-08  0.1600E+02
    -12.504  0.0000E+00  0.1600E+02
    -12.419  0.0000E+00  0.1600E+02
    -12.334  0.5219E-14  0.1600E+02
    -12.248  0.1274E-06  0.1600E+02
    -12.163  0.1096E-01  0.1600E+02
    -12.078  0.4294E+01  0.1637E+02
    -11.993  0.1764E+02  0.1787E+02
    -11.908  0.1559E+01  0.1800E+02
    -11.823  0.1083E-02  0.1800E+02
    -11.738  0.3132E-08  0.1800E+02
    -11.653  0.3059E-05  0.1800E+02
    -11.568  0.7148E-01  0.1801E+02
    -11.483  0.8584E+01  0.1874E+02
    -11.398  0.1440E+02  0.1996E+02
    -11.312  0.4514E+00  0.2000E+02
    -11.227  0.8888E-04  0.2000E+02
    -11.142  0.6838E-10  0.2000E+02
    -11.057  0.0000E+00  0.2000E+02
    -10.972  0.5883E-11  0.2000E+02
    -10.887  0.1701E-04  0.2000E+02
    -10.802  0.1867E+00  0.2002E+02
    -10.717  0.1152E+02  0.2100E+02
    -10.632  0.1160E+02  0.2198E+02
    -10.547  0.1915E+00  0.2200E+02
    -10.461  0.1783E-04  0.2200E+02
    -10.376  0.6771E-11  0.2200E+02
    -10.291  0.3006E-05  0.2200E+02
    -10.206  0.7077E-01  0.2201E+02
    -10.121  0.8556E+01  0.2273E+02
    -10.036  0.1442E+02  0.2396E+02
     -9.951  0.4550E+00  0.2400E+02
     -9.866  0.1169E+00  0.2401E+02
     -9.781  0.1004E+02  0.2486E+02
     -9.696  0.1305E+02  0.2597E+02
     -9.611  0.2982E+00  0.2600E+02
     -9.525  0.4046E-04  0.2600E+02
     -9.440  0.3921E-08  0.2600E+02
     -9.355  0.1246E-02  0.2600E+02
     -9.270  0.1664E+01  0.2614E+02
     -9.185  0.1774E+02  0.2765E+02
     -9.100  0.4087E+01  0.2800E+02
     -9.015  0.9697E-02  0.2800E+02
     -8.930  0.1042E-06  0.2800E+02
     -8.845  0.3045E-07  0.2800E+02
     -8.760  0.4548E-02  0.2800E+02
     -8.675  0.2974E+01  0.2825E+02
     -8.589  0.1810E+02  0.2979E+02
     -8.504  0.2453E+01  0.3000E+02
     -8.419  0.7703E+01  0.3066E+02
     -8.334  0.3259E+02  0.3343E+02
     -8.249  0.6655E+01  0.3400E+02
     -8.164  0.7332E-01  0.3400E+02
     -8.079  0.8126E+01  0.3470E+02
     -7.994  0.3070E+02  0.3731E+02
     -7.909  0.8087E+01  0.3800E+02
     -7.824  0.4777E-01  0.3800E+02
     -7.738  0.1510E-05  0.3800E+02
     -7.653  0.1774E-12  0.3800E+02
     -7.568  0.0000E+00  0.3800E+02
     -7.483  0.0000E+00  0.3800E+02
     -7.398  0.0000E+00  0.3800E+02
     -7.313  0.0000E+00  0.3800E+02
     -7.228  0.0000E+00  0.3800E+02
     -7.143  0.1333E-11  0.3800E+02
     -7.058  0.6155E-05  0.3800E+02
     -6.973  0.1062E+00  0.3801E+02
     -6.888  0.9748E+01  0.3884E+02
     -6.802  0.1332E+02  0.3997E+02
     -6.717  0.3242E+00  0.4000E+02
     -6.632  0.4734E-04  0.4000E+02
     -6.547  0.2669E-10  0.4000E+02
     -6.462  0.0000E+00  0.4000E+02
     -6.377  0.0000E+00  0.4000E+02
     -6.292  0.0000E+00  0.4000E+02
     -6.207  0.0000E+00  0.4000E+02
     -6.122  0.0000E+00  0.4000E+02
     -6.037  0.1874E-08  0.4000E+02
     -5.951  0.7790E-03  0.4000E+02
     -5.866  0.1334E+01  0.4011E+02
     -5.781  0.1735E+02  0.4159E+02
     -5.696  0.4800E+01  0.4200E+02
     -5.611  0.1448E-01  0.4200E+02
     -5.526  0.2021E-06  0.4200E+02
     -5.441  0.1044E-13  0.4200E+02
     -5.356  0.0000E+00  0.4200E+02
     -5.271  0.0000E+00  0.4200E+02
     -5.186  0.0000E+00  0.4200E+02
     -5.101  0.0000E+00  0.4200E+02
     -5.015  0.0000E+00  0.4200E+02
     -4.930  0.0000E+00  0.4200E+02
     -4.845  0.0000E+00  0.4200E+02
     -4.760  0.0000E+00  0.4200E+02
     -4.675  0.0000E+00  0.4200E+02
     -4.590  0.0000E+00  0.4200E+02
     -4.505  0.0000E+00  0.4200E+02
     -4.420  0.0000E+00  0.4200E+02
     -4.335  0.0000E+00  0.4200E+02
     -4.250  0.0000E+00  0.4200E+02
     -4.165  0.0000E+00  0.4200E+02
     -4.079  0.0000E+00  0.4200E+02
     -3.994  0.0000E+00  0.4200E+02
     -3.909  0.0000E+00  0.4200E+02
     -3.824  0.0000E+00  0.4200E+02
     -3.739  0.0000E+00  0.4200E+02
     -3.654  0.0000E+00  0.4200E+02
     -3.569  0.0000E+00  0.4200E+02
     -3.484  0.0000E+00  0.4200E+02
     -3.399  0.0000E+00  0.4200E+02
     -3.314  0.0000E+00  0.4200E+02
     -3.228  0.0000E+00  0.4200E+02
     -3.143  0.0000E+00  0.4200E+02
     -3.058  0.0000E+00  0.4200E+02
     -2.973  0.0000E+00  0.4200E+02
     -2.888  0.0000E+00  0.4200E+02
     -2.803  0.0000E+00  0.4200E+02
     -2.718  0.0000E+00  0.4200E+02
     -2.633  0.8126E-11  0.4200E+02
     -2.548  0.2119E-04  0.4200E+02
     -2.463  0.2105E+00  0.4202E+02
     -2.378  0.1191E+02  0.4303E+02
     -2.292  0.1132E+02  0.4399E+02
     -2.207  0.1001E+02  0.4485E+02
     -2.122  0.1324E+02  0.4597E+02
     -2.037  0.3154E+00  0.4600E+02
     -1.952  0.4496E-04  0.4600E+02
     -1.867  0.2472E-10  0.4600E+02
     -1.782  0.0000E+00  0.4600E+02
     -1.697  0.0000E+00  0.4600E+02
     -1.612  0.0000E+00  0.4600E+02
     -1.527  0.0000E+00  0.4600E+02
     -1.442  0.0000E+00  0.4600E+02
     -1.356  0.0000E+00  0.4600E+02
     -1.271  0.0000E+00  0.4600E+02
     -1.186  0.0000E+00  0.4600E+02
     -1.101  0.0000E+00  0.4600E+02
     -1.016  0.0000E+00  0.4600E+02
     -0.931  0.3997E-09  0.4600E+02
     -0.846  0.2855E-03  0.4600E+02
     -0.761  0.8178E+00  0.4607E+02
     -0.676  0.1618E+02  0.4745E+02
     -0.591  0.6473E+01  0.4800E+02
     -0.505  0.3180E-01  0.4800E+02
     -0.420  0.1050E-04  0.4800E+02
     -0.335  0.1373E+00  0.4801E+02
     -0.250  0.1054E+02  0.4891E+02
     -0.165  0.1267E+02  0.4999E+02
     -0.080  0.9990E+01  0.5084E+02
      0.005  0.1425E+02  0.5205E+02
      0.090  0.1680E+02  0.5348E+02
      0.175  0.6175E+01  0.5400E+02
      0.260  0.9003E+01  0.5477E+02
      0.345  0.1404E+02  0.5597E+02
      0.431  0.4652E+00  0.5601E+02
      0.516  0.8148E+01  0.5670E+02
      0.601  0.1478E+02  0.5796E+02
      0.686  0.5224E+00  0.5800E+02
      0.771  0.4471E+01  0.5838E+02
      0.856  0.1754E+02  0.5987E+02
      0.941  0.1475E+01  0.6000E+02
      1.026  0.9638E-03  0.6000E+02
      1.111  0.2609E-08  0.6000E+02
      1.196  0.0000E+00  0.6000E+02
      1.282  0.0000E+00  0.6000E+02
      1.367  0.0000E+00  0.6000E+02
      1.452  0.0000E+00  0.6000E+02
      1.537  0.0000E+00  0.6000E+02
      1.622  0.0000E+00  0.6000E+02
      1.707  0.0000E+00  0.6000E+02
      1.792  0.0000E+00  0.6000E+02
      1.877  0.0000E+00  0.6000E+02
      1.962  0.0000E+00  0.6000E+02
