   17   17    1    1
  0.2149333E+03  0.1540225E-08  0.1540225E-08  0.1540225E-08  0.5000000E-15
  1.000000000000000E-004
  CAR 
 unknown system                          
     42      1     30
 
  0.0000000E+00  0.0000000E+00  0.0000000E+00  0.1000000E+01
      1        -22.405622   1.000000
      2        -20.021303   1.000000
      3        -19.902627   1.000000
      4        -17.984255   1.000000
      5        -16.020356   1.000000
      6        -15.312494   1.000000
      7        -12.963096   1.000000
      8        -12.896110   1.000000
      9        -12.046339   1.000000
     10        -11.470723   1.000000
     11        -10.716606   1.000000
     12        -10.109100   1.000000
     13         -9.774682   1.000000
     14         -9.218216   1.000000
     15         -8.634136   1.000000
     16         -8.399461   1.000000
     17         -8.357770   1.000000
     18         -8.062468   1.000000
     19         -8.010278   1.000000
     20         -6.880327   1.000000
     21         -5.810454   1.000000
     22         -2.378930   0.000000
     23         -2.200524   0.000000
     24         -0.696599   0.000000
     25         -0.246126   0.000000
     26         -0.072728   0.000000
     27          0.067493   0.000000
     28          0.270684   0.000000
     29          0.529359   0.000000
     30          0.801892   0.000000
