<?xml version="1.0" encoding="ISO-8859-1"?>
<modeling>
 <generator>
  <i name="program" type="string">vasp </i>
  <i name="version" type="string">6.3.2  </i>
  <i name="subversion" type="string">27Jun22 (build Oct 05 2023 17:59:42) gamma-only                       parallel </i>
  <i name="platform" type="string">LinuxIFC </i>
  <i name="date" type="string">2024 04 08 </i>
  <i name="time" type="string">10:31:46 </i>
 </generator>
 <incar>
  <i type="string" name="ALGO">Fast</i>
  <i type="int" name="ISPIN">     1</i>
  <i name="ENCUT">    400.00000000</i>
  <i type="int" name="ISMEAR">     0</i>
  <i name="SIGMA">      0.05000000</i>
  <i type="logical" name="LWAVE"> F  </i>
  <i type="logical" name="LCHARG"> F  </i>
  <i type="string" name="GGA">PE</i>
  <i type="int" name="IVDW">    11</i>
 </incar>
 <primitive_cell>
  <structure name="primitive_cell" >
   <crystal>
    <varray name="basis" >
     <v>      15.40225029       0.00000000       0.00000000 </v>
     <v>       0.00000000      15.40225029       0.00000000 </v>
     <v>       0.00000000       0.00000000      15.40225029 </v>
    </varray>
    <i name="volume">   3653.86527022 </i>
    <varray name="rec_basis" >
     <v>       0.06492558       0.00000000       0.00000000 </v>
     <v>       0.00000000       0.06492558       0.00000000 </v>
     <v>       0.00000000       0.00000000       0.06492558 </v>
    </varray>
   </crystal>
   <varray name="positions" >
    <v>       0.34309201       0.43793267       0.57838257 </v>
    <v>       0.33817662       0.53283735       0.58024220 </v>
    <v>       0.40393176       0.58909515       0.56833284 </v>
    <v>       0.41441861       0.38917113       0.56543412 </v>
    <v>       0.42555628       0.44210026       0.35704470 </v>
    <v>       0.43064608       0.52911015       0.35924281 </v>
    <v>       0.51073676       0.57464101       0.36686473 </v>
    <v>       0.28131273       0.40426669       0.58829080 </v>
    <v>       0.47861495       0.41764578       0.55592711 </v>
    <v>       0.41066269       0.31850982       0.56519025 </v>
    <v>       0.27340738       0.55950344       0.59212856 </v>
    <v>       0.47056576       0.56813663       0.55647928 </v>
    <v>       0.39300272       0.65895922       0.57072414 </v>
    <v>       0.36287131       0.40978830       0.35225412 </v>
    <v>       0.48335234       0.40140147       0.36013567 </v>
    <v>       0.37238499       0.56941711       0.35662199 </v>
    <v>       0.57574751       0.61323930       0.37396319 </v>
   </varray>
  </structure>
  <varray name="primitive_index" >
   <v type="int" >        1 </v>
   <v type="int" >        2 </v>
   <v type="int" >        3 </v>
   <v type="int" >        4 </v>
   <v type="int" >        5 </v>
   <v type="int" >        6 </v>
   <v type="int" >        7 </v>
   <v type="int" >        8 </v>
   <v type="int" >        9 </v>
   <v type="int" >       10 </v>
   <v type="int" >       11 </v>
   <v type="int" >       12 </v>
   <v type="int" >       13 </v>
   <v type="int" >       14 </v>
   <v type="int" >       15 </v>
   <v type="int" >       16 </v>
   <v type="int" >       17 </v>
  </varray>
 </primitive_cell>
 <kpoints>
  <generation param="Gamma">
   <v type="int" name="divisions">       1        1        1 </v>
   <v name="usershift">      0.00000000       0.00000000       0.00000000 </v>
   <v name="genvec1">      1.00000000       0.00000000       0.00000000 </v>
   <v name="genvec2">      0.00000000       1.00000000       0.00000000 </v>
   <v name="genvec3">      0.00000000       0.00000000       1.00000000 </v>
   <v name="shift">      0.00000000       0.00000000       0.00000000 </v>
  </generation>
  <varray name="kpointlist" >
   <v>       0.00000000       0.00000000       0.00000000 </v>
  </varray>
  <varray name="weights" >
   <v>       1.00000000 </v>
  </varray>
 </kpoints>
 <parameters>
  <separator name="general" >
   <i type="string" name="SYSTEM">unknown system</i>
   <i type="logical" name="LCOMPAT"> F  </i>
  </separator>
  <separator name="electronic" >
   <i type="string" name="PREC">normal</i>
   <i name="ENMAX">    400.00000000</i>
   <i name="ENAUG">    644.87300000</i>
   <i name="EDIFF">      0.00010000</i>
   <i type="int" name="IALGO">    68</i>
   <i type="int" name="IWAVPR">    10</i>
   <i type="int" name="NBANDS">    30</i>
   <i type="int" name="NBANDSLOW">    -1</i>
   <i type="int" name="NBANDSHIGH">    -1</i>
   <i name="NELECT">     42.00000000</i>
   <i type="int" name="TURBO">     0</i>
   <i type="int" name="IRESTART">     0</i>
   <i type="int" name="NREBOOT">     0</i>
   <i type="int" name="NMIN">     0</i>
   <i name="EREF">      0.00000000</i>
   <separator name="electronic smearing" >
    <i type="int" name="ISMEAR">     0</i>
    <i name="SIGMA">      0.05000000</i>
    <i name="KSPACING">      0.50000000</i>
    <i type="logical" name="KGAMMA"> T  </i>
    <i type="logical" name="KBLOWUP"> T  </i>
   </separator>
   <separator name="electronic projectors" >
    <i type="logical" name="LREAL"> F  </i>
    <v name="ROPT">      0.00000000      0.00000000      0.00000000</v>
    <i type="int" name="LMAXPAW">  -100</i>
    <i type="int" name="LMAXMIX">     2</i>
    <i type="logical" name="NLSPLINE"> F  </i>
   </separator>
   <separator name="electronic startup" >
    <i type="int" name="ISTART">     0</i>
    <i type="int" name="ICHARG">     2</i>
    <i type="int" name="INIWAV">     1</i>
   </separator>
   <separator name="electronic spin" >
    <i type="int" name="ISPIN">     1</i>
    <i type="logical" name="LNONCOLLINEAR"> F  </i>
    <v name="MAGMOM">      1.00000000      1.00000000      1.00000000      1.00000000      1.00000000      1.00000000      1.00000000      1.00000000      1.00000000      1.00000000      1.00000000      1.00000000      1.00000000      1.00000000      1.00000000      1.00000000      1.00000000</v>
    <i name="NUPDOWN">     -1.00000000</i>
    <i type="logical" name="LSORBIT"> F  </i>
    <v name="SAXIS">      0.00000000      0.00000000      1.00000000</v>
    <i type="logical" name="LSPIRAL"> F  </i>
    <v name="QSPIRAL">      0.00000000      0.00000000      0.00000000</v>
    <i type="logical" name="LZEROZ"> F  </i>
   </separator>
   <separator name="electronic exchange-correlation" >
    <i type="logical" name="LASPH"> F  </i>
    <i type="logical" name="LMETAGGA"> F  </i>
   </separator>
   <separator name="electronic convergence" >
    <i type="int" name="NELM">    60</i>
    <i type="int" name="NELMDL">    -5</i>
    <i type="int" name="NELMIN">     2</i>
    <i name="ENINI">    400.00000000</i>
    <separator name="electronic convergence detail" >
     <i type="logical" name="LDIAG"> T  </i>
     <i type="logical" name="LSUBROT"> F  </i>
     <i name="WEIMIN">      0.00000000</i>
     <i name="EBREAK">      0.00000083</i>
     <i name="DEPER">      0.30000000</i>
     <i type="int" name="NRMM">     4</i>
     <i name="TIME">      0.40000000</i>
    </separator>
   </separator>
   <separator name="electronic mixer" >
    <i name="AMIX">      0.40000000</i>
    <i name="BMIX">      1.00000000</i>
    <i name="AMIN">      0.10000000</i>
    <i name="AMIX_MAG">      1.60000000</i>
    <i name="BMIX_MAG">      1.00000000</i>
    <separator name="electronic mixer details" >
     <i type="int" name="IMIX">     4</i>
     <i type="logical" name="MIXFIRST"> F  </i>
     <i type="int" name="MAXMIX">   -45</i>
     <i name="WC">    100.00000000</i>
     <i type="int" name="INIMIX">     1</i>
     <i type="int" name="MIXPRE">     1</i>
     <i type="int" name="MREMOVE">     5</i>
    </separator>
   </separator>
   <separator name="electronic dipolcorrection" >
    <i type="logical" name="LDIPOL"> F  </i>
    <i type="logical" name="LMONO"> F  </i>
    <i type="int" name="IDIPOL">     0</i>
    <i name="EPSILON">      1.00000000</i>
    <v name="DIPOL">   -100.00000000   -100.00000000   -100.00000000</v>
    <i name="EFIELD">      0.00000000</i>
   </separator>
  </separator>
  <separator name="grids" >
   <i type="int" name="NGX">    80</i>
   <i type="int" name="NGY">    80</i>
   <i type="int" name="NGZ">    80</i>
   <i type="int" name="NGXF">   160</i>
   <i type="int" name="NGYF">   160</i>
   <i type="int" name="NGZF">   160</i>
   <i type="logical" name="ADDGRID"> F  </i>
  </separator>
  <separator name="ionic" >
   <i type="int" name="NSW">     0</i>
   <i type="int" name="IBRION">    -1</i>
   <i type="int" name="MDALGO">     0</i>
   <i type="int" name="ISIF">     2</i>
   <i name="PSTRESS">      0.00000000</i>
   <i name="EDIFFG">      0.00100000</i>
   <i type="int" name="NFREE">     0</i>
   <i name="POTIM">      0.50000000</i>
   <i name="SMASS">     -3.00000000</i>
   <i name="SCALEE">      1.00000000</i>
  </separator>
  <separator name="ionic md" >
   <i name="TEBEG">      0.00010000</i>
   <i name="TEEND">      0.00010000</i>
   <i type="int" name="NBLOCK">     1</i>
   <i type="int" name="KBLOCK">     1</i>
   <i type="int" name="NPACO">   256</i>
   <i name="APACO">     10.00000000</i>
  </separator>
  <separator name="symmetry" >
   <i type="int" name="ISYM">     2</i>
   <i name="SYMPREC">      0.00001000</i>
  </separator>
  <separator name="dos" >
   <i type="int" name="LORBIT">     0</i>
   <v name="RWIGS">     -1.00000000     -1.00000000     -1.00000000</v>
   <i type="int" name="NEDOS">   301</i>
   <i name="EMIN">     10.00000000</i>
   <i name="EMAX">    -10.00000000</i>
   <i name="EFERMI">      0.00000000</i>
  </separator>
  <separator name="writing" >
   <i type="int" name="NWRITE">     2</i>
   <i type="logical" name="LWAVE"> F  </i>
   <i type="logical" name="LDOWNSAMPLE"> F  </i>
   <i type="logical" name="LCHARG"> F  </i>
   <i type="logical" name="LPARD"> F  </i>
   <i type="logical" name="LVTOT"> F  </i>
   <i type="logical" name="LVHAR"> F  </i>
   <i type="logical" name="LELF"> F  </i>
   <i type="logical" name="LOPTICS"> F  </i>
   <v name="STM">      0.00000000      0.00000000      0.00000000      0.00000000      0.00000000      0.00000000      0.00000000</v>
  </separator>
  <separator name="performance" >
   <i type="int" name="NPAR">    10</i>
   <i type="int" name="NSIM">     4</i>
   <i type="int" name="NBLK">    -1</i>
   <i type="logical" name="LPLANE"> T  </i>
   <i type="logical" name="LSCALAPACK"> T  </i>
   <i type="logical" name="LSCAAWARE"> F  </i>
   <i type="logical" name="LSCALU"> F  </i>
   <i type="logical" name="LASYNC"> F  </i>
   <i type="logical" name="LORBITALREAL"> F  </i>
  </separator>
  <separator name="miscellaneous" >
   <i type="int" name="IDIOT">     3</i>
   <i type="int" name="PHON_NSTRUCT">    -1</i>
   <i type="logical" name="LMUSIC"> F  </i>
   <v name="POMASS">     12.01100000      1.00000000     14.00100000</v>
   <v name="DARWINR">      0.00000000      0.00000000      0.00000000</v>
   <v name="DARWINV">      1.00000000      1.00000000      1.00000000</v>
   <i type="logical" name="LCORR"> T  </i>
  </separator>
  <i type="logical" name="GGA_COMPAT"> T  </i>
  <i type="logical" name="LBERRY"> F  </i>
  <i type="int" name="ICORELEVEL">     0</i>
  <i type="logical" name="LDAU"> F  </i>
  <i type="int" name="I_CONSTRAINED_M">     0</i>
  <separator name="electronic exchange-correlation" >
   <i type="string" name="GGA">PE</i>
   <i type="int" name="VOSKOWN">     0</i>
   <i type="logical" name="LHFCALC"> F  </i>
   <i type="string" name="PRECFOCK"></i>
   <i type="logical" name="LSYMGRAD"> F  </i>
   <i type="logical" name="LHFONE"> F  </i>
   <i type="logical" name="LRHFCALC"> F  </i>
   <i type="logical" name="LTHOMAS"> F  </i>
   <i type="logical" name="LMODELHF"> F  </i>
   <i type="logical" name="LFOCKACE"> F  </i>
   <i name="ENCUT4O">     -1.00000000</i>
   <i type="int" name="EXXOEP">     0</i>
   <i type="int" name="FOURORBIT">     0</i>
   <i name="AEXX">      0.00000000</i>
   <i name="HFALPHA">      0.00000000</i>
   <i name="MCALPHA">      0.00000000</i>
   <i name="ALDAX">      1.00000000</i>
   <i name="AGGAX">      1.00000000</i>
   <i name="ALDAC">      1.00000000</i>
   <i name="AGGAC">      1.00000000</i>
   <i type="int" name="NKREDX">     1</i>
   <i type="int" name="NKREDY">     1</i>
   <i type="int" name="NKREDZ">     1</i>
   <i type="logical" name="SHIFTRED"> F  </i>
   <i type="logical" name="ODDONLY"> F  </i>
   <i type="logical" name="EVENONLY"> F  </i>
   <i type="int" name="LMAXFOCK">     0</i>
   <i type="int" name="NMAXFOCKAE">     0</i>
   <i type="logical" name="LFOCKAEDFT"> F  </i>
   <i name="HFSCREEN">      0.00000000</i>
   <i name="HFSCREENC">      0.00000000</i>
   <i type="int" name="NBANDSGWLOW">     0</i>
  </separator>
  <separator name="vdW DFT" >
   <i type="logical" name="LUSE_VDW"> F  </i>
   <i name="Zab_VDW">     -0.84910000</i>
   <i name="PARAM1">      0.12340000</i>
   <i name="PARAM2">      1.00000000</i>
   <i name="PARAM3">      0.00000000</i>
  </separator>
  <separator name="model GW" >
   <i type="int" name="MODEL_GW">     0</i>
   <i name="MODEL_EPS0">    128.95995071</i>
   <i name="MODEL_ALPHA">      1.00000000</i>
  </separator>
  <separator name="linear response parameters" >
   <i type="logical" name="LEPSILON"> F  </i>
   <i type="logical" name="LRPA"> F  </i>
   <i type="logical" name="LNABLA"> F  </i>
   <i type="logical" name="LVEL"> F  </i>
   <i name="CSHIFT">      0.10000000</i>
   <i name="OMEGAMAX">     -1.00000000</i>
   <i name="DEG_THRESHOLD">      0.00200000</i>
   <i name="RTIME">     -0.10000000</i>
   <i name="WPLASMAI">      0.00000000</i>
   <v name="DFIELD">      0.00000000      0.00000000      0.00000000</v>
   <v name="WPLASMA">      0.00000000      0.00000000      0.00000000      0.00000000      0.00000000      0.00000000      0.00000000      0.00000000      0.00000000</v>
  </separator>
  <separator name="orbital magnetization" >
   <i type="logical" name="NUCIND"> F  </i>
   <v name="MAGPOS">      0.00000000      0.00000000      0.00000000</v>
   <i type="logical" name="LNICSALL"> T  </i>
   <i type="logical" name="ORBITALMAG"> F  </i>
   <i type="logical" name="LMAGBLOCH"> F  </i>
   <i type="logical" name="LCHIMAG"> F  </i>
   <i type="logical" name="LGAUGE"> T  </i>
   <i type="int" name="MAGATOM">     0</i>
   <v name="MAGDIPOL">      0.00000000      0.00000000      0.00000000</v>
   <v name="AVECCONST">      0.00000000      0.00000000      0.00000000</v>
  </separator>
  <separator name="response functions" >
   <i type="logical" name="LFINITE_TEMPERATURE"> F  </i>
   <i type="logical" name="LADDER"> F  </i>
   <i type="logical" name="LRPAFORCE"> F  </i>
   <i type="logical" name="LFXC"> F  </i>
   <i type="logical" name="LHARTREE"> T  </i>
   <i type="int" name="IBSE">     0</i>
   <v type="int" name="KPOINT">    -1     0     0     0</v>
   <i type="logical" name="LTCTC"> F  </i>
   <i type="logical" name="LTCTE"> F  </i>
   <i type="logical" name="LTETE"> F  </i>
   <i type="logical" name="LTRIPLET"> F  </i>
   <i type="logical" name="LFXCEPS"> F  </i>
   <i type="logical" name="LFXHEG"> F  </i>
   <i type="int" name="NATURALO">     2</i>
   <i type="logical" name="LHOLEGF"> F  </i>
   <i type="logical" name="L2ORDER"> F  </i>
   <i type="logical" name="LDMP1"> F  </i>
   <i type="logical" name="LMP2LT"> F  </i>
   <i type="logical" name="LSMP2LT"> F  </i>
   <i type="logical" name="LGWLF"> F  </i>
   <i name="ENCUTGW">     -2.00000000</i>
   <i name="ENCUTGWSOFT">     -2.00000000</i>
   <i name="ENCUTLF">     -1.00000000</i>
   <i type="logical" name="LESF_SPLINES"> F  </i>
   <i type="int" name="LMAXMP2">    -1</i>
   <i name="SCISSOR">      0.00000000</i>
   <i type="int" name="NOMEGA">     0</i>
   <i type="int" name="NOMEGAR">     0</i>
   <i type="int" name="NBANDSGW">    -1</i>
   <i type="int" name="NBANDSO">    -1</i>
   <i type="int" name="NBANDSV">    -1</i>
   <i type="int" name="NELMGW">     1</i>
   <i type="int" name="NELMHF">     1</i>
   <i type="int" name="DIM">     3</i>
   <i type="int" name="IESPILON">     4</i>
   <i type="int" name="ANTIRES">     0</i>
   <i name="OMEGAMAX">    -30.00000000</i>
   <i name="OMEGAMIN">    -30.00000000</i>
   <i name="OMEGATL">   -200.00000000</i>
   <i type="int" name="OMEGAGRID">     0</i>
   <i name="CSHIFT">     -0.10000000</i>
   <i type="logical" name="LSELFENERGY"> F  </i>
   <i type="logical" name="LSPECTRAL"> F  </i>
   <i type="logical" name="LSPECTRALGW"> F  </i>
   <i type="logical" name="LSINGLES"> F  </i>
   <i type="logical" name="LFERMIGW"> F  </i>
   <i type="logical" name="ODDONLYGW"> F  </i>
   <i type="logical" name="EVENONLYGW"> F  </i>
   <i type="int" name="NKREDLFX">     1</i>
   <i type="int" name="NKREDLFY">     1</i>
   <i type="int" name="NKREDLFZ">     1</i>
   <i type="int" name="MAXMEM">  2800</i>
   <i type="int" name="TELESCOPE">     0</i>
   <i type="int" name="NTAUPAR">    -1</i>
   <i type="int" name="NOMEGAPAR">    -1</i>
   <i name="DAMP_NEWTON">      0.80000001</i>
   <i name="LAMBDA">      1.00000000</i>
  </separator>
  <separator name="External order field" >
   <i name="OFIELD_KAPPA">      0.00000000</i>
   <v name="OFIELD_K">      0.00000000      0.00000000      0.00000000</v>
   <i name="OFIELD_Q6_NEAR">      0.00000000</i>
   <i name="OFIELD_Q6_FAR">      0.00000000</i>
   <i name="OFIELD_A">      0.00000000</i>
  </separator>
  <separator name="optional k-points parameters" >
   <i type="int" name="KPOINTS_OPT_MODE">     1</i>
   <i type="logical" name="LKPOINTS_OPT"> F  </i>
  </separator>
 </parameters>
 <atominfo>
  <atoms>      17 </atoms>
  <types>       3 </types>
  <array name="atoms" >
   <dimension dim="1">ion</dimension>
   <field type="string">element</field>
   <field type="int">atomtype</field>
   <set>
    <rc><c>C </c><c>   1</c></rc>
    <rc><c>C </c><c>   1</c></rc>
    <rc><c>C </c><c>   1</c></rc>
    <rc><c>C </c><c>   1</c></rc>
    <rc><c>C </c><c>   1</c></rc>
    <rc><c>C </c><c>   1</c></rc>
    <rc><c>C </c><c>   1</c></rc>
    <rc><c>H </c><c>   2</c></rc>
    <rc><c>H </c><c>   2</c></rc>
    <rc><c>H </c><c>   2</c></rc>
    <rc><c>H </c><c>   2</c></rc>
    <rc><c>H </c><c>   2</c></rc>
    <rc><c>H </c><c>   2</c></rc>
    <rc><c>H </c><c>   2</c></rc>
    <rc><c>H </c><c>   2</c></rc>
    <rc><c>H </c><c>   2</c></rc>
    <rc><c>N </c><c>   3</c></rc>
   </set>
  </array>
  <array name="atomtypes" >
   <dimension dim="1">type</dimension>
   <field type="int">atomspertype</field>
   <field type="string">element</field>
   <field>mass</field>
   <field>valence</field>
   <field type="string">pseudopotential</field>
   <set>
    <rc><c>   7</c><c>C </c><c>     12.01100000</c><c>      4.00000000</c><c>  PAW_PBE C 08Apr2002                   </c></rc>
    <rc><c>   9</c><c>H </c><c>      1.00000000</c><c>      1.00000000</c><c>  PAW_PBE H 15Jun2001                   </c></rc>
    <rc><c>   1</c><c>N </c><c>     14.00100000</c><c>      5.00000000</c><c>  PAW_PBE N 08Apr2002                   </c></rc>
   </set>
  </array>
 </atominfo>
 <structure name="initialpos" >
  <crystal>
   <varray name="basis" >
    <v>      15.40225029       0.00000000       0.00000000 </v>
    <v>       0.00000000      15.40225029       0.00000000 </v>
    <v>       0.00000000       0.00000000      15.40225029 </v>
   </varray>
   <i name="volume">   3653.86527022 </i>
   <varray name="rec_basis" >
    <v>       0.06492558       0.00000000       0.00000000 </v>
    <v>       0.00000000       0.06492558       0.00000000 </v>
    <v>       0.00000000       0.00000000       0.06492558 </v>
   </varray>
  </crystal>
  <varray name="positions" >
   <v>       0.34309201       0.43793267       0.57838257 </v>
   <v>       0.33817662       0.53283735       0.58024220 </v>
   <v>       0.40393176       0.58909515       0.56833284 </v>
   <v>       0.41441861       0.38917113       0.56543412 </v>
   <v>       0.42555628       0.44210026       0.35704470 </v>
   <v>       0.43064608       0.52911015       0.35924281 </v>
   <v>       0.51073676       0.57464101       0.36686473 </v>
   <v>       0.28131273       0.40426669       0.58829080 </v>
   <v>       0.47861495       0.41764578       0.55592711 </v>
   <v>       0.41066269       0.31850982       0.56519025 </v>
   <v>       0.27340738       0.55950344       0.59212856 </v>
   <v>       0.47056576       0.56813663       0.55647928 </v>
   <v>       0.39300272       0.65895922       0.57072414 </v>
   <v>       0.36287131       0.40978830       0.35225412 </v>
   <v>       0.48335234       0.40140147       0.36013567 </v>
   <v>       0.37238499       0.56941711       0.35662199 </v>
   <v>       0.57574751       0.61323930       0.37396319 </v>
  </varray>
 </structure>
 <calculation>
  <scstep>
   <time name="dav">    0.51    0.51</time>
   <time name="total">    0.77    0.77</time>
   <energy>
    <i name="alphaZ">      2.15216506 </i>
    <i name="ewald">   2077.73031746 </i>
    <i name="hartreedc">  -3024.14396750 </i>
    <i name="XCdc">    129.03160508 </i>
    <i name="pawpsdc">    983.79330320 </i>
    <i name="pawaedc">   -989.05002801 </i>
    <i name="eentropy">     -0.02801820 </i>
    <i name="bandstr">   -304.08436414 </i>
    <i name="atom">   1406.67326350 </i>
    <i name="e_fr_energy">    282.07427645 </i>
    <i name="e_wo_entrp">    282.10229465 </i>
    <i name="e_0_energy">    282.08828555 </i>
   </energy>
  </scstep>
  <scstep>
   <time name="dav">    0.49    0.49</time>
   <time name="total">    0.49    0.49</time>
   <energy>
    <i name="e_fr_energy">     33.95861425 </i>
    <i name="e_wo_entrp">     33.95861425 </i>
    <i name="e_0_energy">     33.95861425 </i>
   </energy>
  </scstep>
  <scstep>
   <time name="dav">    0.41    0.41</time>
   <time name="total">    0.41    0.41</time>
   <energy>
    <i name="e_fr_energy">   -100.62337606 </i>
    <i name="e_wo_entrp">   -100.62337606 </i>
    <i name="e_0_energy">   -100.62337606 </i>
   </energy>
  </scstep>
  <scstep>
   <time name="dav">    0.37    0.37</time>
   <time name="total">    0.37    0.37</time>
   <energy>
    <i name="e_fr_energy">   -112.73336530 </i>
    <i name="e_wo_entrp">   -112.73336530 </i>
    <i name="e_0_energy">   -112.73336530 </i>
   </energy>
  </scstep>
  <scstep>
   <time name="dav">    0.41    0.41</time>
   <time name="total">    0.47    0.47</time>
   <energy>
    <i name="e_fr_energy">   -112.90761465 </i>
    <i name="e_wo_entrp">   -112.90761465 </i>
    <i name="e_0_energy">   -112.90761465 </i>
   </energy>
  </scstep>
  <scstep>
   <time name="diag">    0.06    0.06</time>
   <time name="diis">    0.42    0.42</time>
   <time name="orth">    0.00    0.00</time>
   <time name="total">    0.78    0.78</time>
   <energy>
    <i name="e_fr_energy">   -103.96426792 </i>
    <i name="e_wo_entrp">   -103.96426792 </i>
    <i name="e_0_energy">   -103.96426792 </i>
   </energy>
  </scstep>
  <scstep>
   <time name="diag">    0.06    0.06</time>
   <time name="diis">    0.44    0.44</time>
   <time name="orth">    0.00    0.00</time>
   <time name="total">    0.80    0.80</time>
   <energy>
    <i name="e_fr_energy">   -101.92334509 </i>
    <i name="e_wo_entrp">   -101.92334509 </i>
    <i name="e_0_energy">   -101.92334509 </i>
   </energy>
  </scstep>
  <scstep>
   <time name="diag">    0.06    0.06</time>
   <time name="diis">    0.47    0.47</time>
   <time name="orth">    0.00    0.00</time>
   <time name="total">    0.83    0.83</time>
   <energy>
    <i name="e_fr_energy">   -101.75910900 </i>
    <i name="e_wo_entrp">   -101.75910900 </i>
    <i name="e_0_energy">   -101.75910900 </i>
   </energy>
  </scstep>
  <scstep>
   <time name="diag">    0.07    0.07</time>
   <time name="diis">    0.47    0.47</time>
   <time name="orth">    0.00    0.00</time>
   <time name="total">    0.84    0.84</time>
   <energy>
    <i name="e_fr_energy">   -101.67785450 </i>
    <i name="e_wo_entrp">   -101.67785450 </i>
    <i name="e_0_energy">   -101.67785450 </i>
   </energy>
  </scstep>
  <scstep>
   <time name="diag">    0.06    0.06</time>
   <time name="diis">    0.49    0.49</time>
   <time name="orth">    0.00    0.00</time>
   <time name="total">    0.85    0.85</time>
   <energy>
    <i name="e_fr_energy">   -101.67337282 </i>
    <i name="e_wo_entrp">   -101.67337282 </i>
    <i name="e_0_energy">   -101.67337282 </i>
   </energy>
  </scstep>
  <scstep>
   <time name="diag">    0.06    0.06</time>
   <time name="diis">    0.46    0.46</time>
   <time name="orth">    0.00    0.00</time>
   <time name="total">    0.82    0.82</time>
   <energy>
    <i name="e_fr_energy">   -101.67925413 </i>
    <i name="e_wo_entrp">   -101.67925413 </i>
    <i name="e_0_energy">   -101.67925413 </i>
   </energy>
  </scstep>
  <scstep>
   <time name="diag">    0.06    0.06</time>
   <time name="diis">    0.46    0.46</time>
   <time name="orth">    0.00    0.00</time>
   <time name="total">    0.83    0.83</time>
   <energy>
    <i name="e_fr_energy">   -101.67748496 </i>
    <i name="e_wo_entrp">   -101.67748496 </i>
    <i name="e_0_energy">   -101.67748496 </i>
   </energy>
  </scstep>
  <scstep>
   <time name="diag">    0.06    0.06</time>
   <time name="diis">    0.46    0.46</time>
   <time name="orth">    0.00    0.00</time>
   <time name="total">    0.82    0.82</time>
   <energy>
    <i name="e_fr_energy">   -101.68358673 </i>
    <i name="e_wo_entrp">   -101.68358673 </i>
    <i name="e_0_energy">   -101.68358673 </i>
   </energy>
  </scstep>
  <scstep>
   <time name="diag">    0.06    0.06</time>
   <time name="diis">    0.49    0.49</time>
   <time name="orth">    0.00    0.00</time>
   <time name="total">    0.85    0.85</time>
   <energy>
    <i name="e_fr_energy">   -101.68799987 </i>
    <i name="e_wo_entrp">   -101.68799987 </i>
    <i name="e_0_energy">   -101.68799987 </i>
   </energy>
  </scstep>
  <scstep>
   <time name="diag">    0.06    0.06</time>
   <time name="diis">    0.47    0.47</time>
   <time name="orth">    0.00    0.00</time>
   <time name="total">    0.84    0.84</time>
   <energy>
    <i name="e_fr_energy">   -101.69779030 </i>
    <i name="e_wo_entrp">   -101.69779030 </i>
    <i name="e_0_energy">   -101.69779030 </i>
   </energy>
  </scstep>
  <scstep>
   <time name="diag">    0.07    0.07</time>
   <time name="diis">    0.46    0.46</time>
   <time name="orth">    0.00    0.00</time>
   <time name="total">    0.83    0.83</time>
   <energy>
    <i name="e_fr_energy">   -101.70040944 </i>
    <i name="e_wo_entrp">   -101.70040944 </i>
    <i name="e_0_energy">   -101.70040944 </i>
   </energy>
  </scstep>
  <scstep>
   <time name="diag">    0.06    0.06</time>
   <time name="diis">    0.46    0.46</time>
   <time name="orth">    0.00    0.00</time>
   <time name="total">    0.82    0.82</time>
   <energy>
    <i name="e_fr_energy">   -101.70371412 </i>
    <i name="e_wo_entrp">   -101.70371412 </i>
    <i name="e_0_energy">   -101.70371412 </i>
   </energy>
  </scstep>
  <scstep>
   <time name="diag">    0.06    0.06</time>
   <time name="diis">    0.39    0.39</time>
   <time name="orth">    0.00    0.00</time>
   <time name="total">    0.75    0.75</time>
   <energy>
    <i name="e_fr_energy">   -101.70438062 </i>
    <i name="e_wo_entrp">   -101.70438062 </i>
    <i name="e_0_energy">   -101.70438062 </i>
   </energy>
  </scstep>
  <scstep>
   <time name="diag">    0.06    0.06</time>
   <time name="diis">    0.37    0.37</time>
   <time name="orth">    0.00    0.00</time>
   <time name="total">    0.74    0.74</time>
   <energy>
    <i name="e_fr_energy">   -101.70499932 </i>
    <i name="e_wo_entrp">   -101.70499932 </i>
    <i name="e_0_energy">   -101.70499932 </i>
   </energy>
  </scstep>
  <scstep>
   <time name="diag">    0.07    0.07</time>
   <time name="diis">    0.35    0.35</time>
   <time name="orth">    0.00    0.00</time>
   <time name="total">    0.71    0.71</time>
   <energy>
    <i name="e_fr_energy">   -101.70516497 </i>
    <i name="e_wo_entrp">   -101.70516497 </i>
    <i name="e_0_energy">   -101.70516497 </i>
   </energy>
  </scstep>
  <scstep>
   <time name="diag">    0.07    0.07</time>
   <time name="diis">    0.33    0.33</time>
   <time name="orth">    0.00    0.00</time>
   <time name="total">    0.69    0.69</time>
   <energy>
    <i name="e_fr_energy">   -101.70532341 </i>
    <i name="e_wo_entrp">   -101.70532341 </i>
    <i name="e_0_energy">   -101.70532341 </i>
   </energy>
  </scstep>
  <scstep>
   <time name="diag">    0.06    0.06</time>
   <time name="diis">    0.31    0.31</time>
   <time name="orth">    0.01    0.01</time>
   <time name="total">    0.63    0.63</time>
   <energy>
    <i name="alphaZ">      2.15216506 </i>
    <i name="ewald">   2077.73031746 </i>
    <i name="hartreedc">  -3210.68877450 </i>
    <i name="XCdc">    138.76463984 </i>
    <i name="pawpsdc">   3470.82918881 </i>
    <i name="pawaedc">  -3477.17331980 </i>
    <i name="eentropy">     -0.00000000 </i>
    <i name="bandstr">   -509.99284877 </i>
    <i name="atom">   1406.67326350 </i>
    <i name="e_fr_energy">   -101.70536841 </i>
    <i name="e_wo_entrp">   -101.70536841 </i>
    <i name="e_0_energy">   -101.70536841 </i>
   </energy>
  </scstep>
  <structure>
   <crystal>
    <varray name="basis" >
     <v>      15.40225029       0.00000000       0.00000000 </v>
     <v>       0.00000000      15.40225029       0.00000000 </v>
     <v>       0.00000000       0.00000000      15.40225029 </v>
    </varray>
    <i name="volume">   3653.86527022 </i>
    <varray name="rec_basis" >
     <v>       0.06492558       0.00000000       0.00000000 </v>
     <v>       0.00000000       0.06492558       0.00000000 </v>
     <v>       0.00000000       0.00000000       0.06492558 </v>
    </varray>
   </crystal>
   <varray name="positions" >
    <v>       0.34309201       0.43793267       0.57838257 </v>
    <v>       0.33817662       0.53283735       0.58024220 </v>
    <v>       0.40393176       0.58909515       0.56833284 </v>
    <v>       0.41441861       0.38917113       0.56543412 </v>
    <v>       0.42555628       0.44210026       0.35704470 </v>
    <v>       0.43064608       0.52911015       0.35924281 </v>
    <v>       0.51073676       0.57464101       0.36686473 </v>
    <v>       0.28131273       0.40426669       0.58829080 </v>
    <v>       0.47861495       0.41764578       0.55592711 </v>
    <v>       0.41066269       0.31850982       0.56519025 </v>
    <v>       0.27340738       0.55950344       0.59212856 </v>
    <v>       0.47056576       0.56813663       0.55647928 </v>
    <v>       0.39300272       0.65895922       0.57072414 </v>
    <v>       0.36287131       0.40978830       0.35225412 </v>
    <v>       0.48335234       0.40140147       0.36013567 </v>
    <v>       0.37238499       0.56941711       0.35662199 </v>
    <v>       0.57574751       0.61323930       0.37396319 </v>
   </varray>
  </structure>
  <varray name="forces" >
   <v>       0.02959704       0.02438205      -0.00322140 </v>
   <v>       0.03497285      -0.02122150      -0.00549673 </v>
   <v>      -0.02987089      -0.02711787       0.00445150 </v>
   <v>      -0.02884065       0.01953689       0.00319712 </v>
   <v>       0.00322840       0.03436111      -0.00022962 </v>
   <v>       0.02845360      -0.01575112      -0.00163008 </v>
   <v>      -0.12063762      -0.07474855      -0.01223059 </v>
   <v>      -0.02318529      -0.01173524       0.00516367 </v>
   <v>       0.02153956       0.01250483      -0.00499096 </v>
   <v>      -0.00110426      -0.02714750      -0.00042257 </v>
   <v>      -0.02410731       0.00838557       0.00704757 </v>
   <v>       0.02229508      -0.00807601      -0.00554559 </v>
   <v>      -0.00664476       0.02817696       0.00087754 </v>
   <v>      -0.02652999      -0.00994853      -0.00226075 </v>
   <v>       0.02221326      -0.01428310       0.00161293 </v>
   <v>      -0.02042484       0.01415250       0.00027039 </v>
   <v>       0.11904581       0.06852951       0.01340758 </v>
  </varray>
  <varray name="stress" >
   <v>      -0.69980420       0.02844105      -0.01494459 </v>
   <v>       0.02844105      -0.77055296       0.00854128 </v>
   <v>      -0.01494459       0.00854128      -0.91273462 </v>
  </varray>
  <energy>
   <i name="e_fr_energy">   -101.90575403 </i>
   <i name="e_wo_entrp">   -101.90575403 </i>
   <i name="e_0_energy">   -101.90575403 </i>
  </energy>
  <time name="totalsc">   17.58   17.87</time>
  <eigenvalues>
   <array>
    <dimension dim="1">band</dimension>
    <dimension dim="2">kpoint</dimension>
    <dimension dim="3">spin</dimension>
    <field>eigene</field>
    <field>occ</field>
    <set>
     <set comment="spin 1">
      <set comment="kpoint 1">
       <r>  -22.4056    1.0000 </r>
       <r>  -20.0213    1.0000 </r>
       <r>  -19.9026    1.0000 </r>
       <r>  -17.9843    1.0000 </r>
       <r>  -16.0204    1.0000 </r>
       <r>  -15.3125    1.0000 </r>
       <r>  -12.9631    1.0000 </r>
       <r>  -12.8961    1.0000 </r>
       <r>  -12.0463    1.0000 </r>
       <r>  -11.4707    1.0000 </r>
       <r>  -10.7166    1.0000 </r>
       <r>  -10.1091    1.0000 </r>
       <r>   -9.7747    1.0000 </r>
       <r>   -9.2182    1.0000 </r>
       <r>   -8.6341    1.0000 </r>
       <r>   -8.3995    1.0000 </r>
       <r>   -8.3578    1.0000 </r>
       <r>   -8.0625    1.0000 </r>
       <r>   -8.0103    1.0000 </r>
       <r>   -6.8803    1.0000 </r>
       <r>   -5.8105    1.0000 </r>
       <r>   -2.3789    0.0000 </r>
       <r>   -2.2005    0.0000 </r>
       <r>   -0.6966    0.0000 </r>
       <r>   -0.2461    0.0000 </r>
       <r>   -0.0727    0.0000 </r>
       <r>    0.0675    0.0000 </r>
       <r>    0.2707    0.0000 </r>
       <r>    0.5294    0.0000 </r>
       <r>    0.8019    0.0000 </r>
      </set>
     </set>
    </set>
   </array>
  </eigenvalues>
  <separator name="orbital magnetization" >
   <v name="MAGDIPOLOUT">      0.00000000      0.00000000      0.00000000</v>
  </separator>
  <dos>
   <i name="efermi">     -5.52070522 </i>
   <total>
    <array>
     <dimension dim="1">gridpoints</dimension>
     <dimension dim="2">spin</dimension>
     <field>energy</field>
     <field>total</field>
     <field>integrated</field>
     <set>
      <set comment="spin 1">
       <r>   -23.5660     0.0000     0.0000 </r>
       <r>   -23.4809     0.0000     0.0000 </r>
       <r>   -23.3958     0.0000     0.0000 </r>
       <r>   -23.3107     0.0000     0.0000 </r>
       <r>   -23.2256     0.0000     0.0000 </r>
       <r>   -23.1405     0.0000     0.0000 </r>
       <r>   -23.0554     0.0000     0.0000 </r>
       <r>   -22.9703     0.0000     0.0000 </r>
       <r>   -22.8852     0.0000     0.0000 </r>
       <r>   -22.8001     0.0000     0.0000 </r>
       <r>   -22.7151     0.0000     0.0000 </r>
       <r>   -22.6300     0.0000     0.0000 </r>
       <r>   -22.5449     0.0010     0.0001 </r>
       <r>   -22.4598     1.4752     0.1256 </r>
       <r>   -22.3747    17.5444     1.6185 </r>
       <r>   -22.2896     4.4707     1.9990 </r>
       <r>   -22.2045     0.0121     2.0000 </r>
       <r>   -22.1194     0.0000     2.0000 </r>
       <r>   -22.0343     0.0000     2.0000 </r>
       <r>   -21.9492     0.0000     2.0000 </r>
       <r>   -21.8641     0.0000     2.0000 </r>
       <r>   -21.7790     0.0000     2.0000 </r>
       <r>   -21.6939     0.0000     2.0000 </r>
       <r>   -21.6088     0.0000     2.0000 </r>
       <r>   -21.5237     0.0000     2.0000 </r>
       <r>   -21.4386     0.0000     2.0000 </r>
       <r>   -21.3535     0.0000     2.0000 </r>
       <r>   -21.2685     0.0000     2.0000 </r>
       <r>   -21.1834     0.0000     2.0000 </r>
       <r>   -21.0983     0.0000     2.0000 </r>
       <r>   -21.0132     0.0000     2.0000 </r>
       <r>   -20.9281     0.0000     2.0000 </r>
       <r>   -20.8430     0.0000     2.0000 </r>
       <r>   -20.7579     0.0000     2.0000 </r>
       <r>   -20.6728     0.0000     2.0000 </r>
       <r>   -20.5877     0.0000     2.0000 </r>
       <r>   -20.5026     0.0000     2.0000 </r>
       <r>   -20.4175     0.0000     2.0000 </r>
       <r>   -20.3324     0.0000     2.0000 </r>
       <r>   -20.2473     0.0000     2.0000 </r>
       <r>   -20.1622     0.0008     2.0001 </r>
       <r>   -20.0771     1.3424     2.1143 </r>
       <r>   -19.9920    17.5016     3.6036 </r>
       <r>   -19.9069    15.2534     4.9016 </r>
       <r>   -19.8219    12.6460     5.9777 </r>
       <r>   -19.7368     0.2624     6.0000 </r>
       <r>   -19.6517     0.0000     6.0000 </r>
       <r>   -19.5666     0.0000     6.0000 </r>
       <r>   -19.4815     0.0000     6.0000 </r>
       <r>   -19.3964     0.0000     6.0000 </r>
       <r>   -19.3113     0.0000     6.0000 </r>
       <r>   -19.2262     0.0000     6.0000 </r>
       <r>   -19.1411     0.0000     6.0000 </r>
       <r>   -19.0560     0.0000     6.0000 </r>
       <r>   -18.9709     0.0000     6.0000 </r>
       <r>   -18.8858     0.0000     6.0000 </r>
       <r>   -18.8007     0.0000     6.0000 </r>
       <r>   -18.7156     0.0000     6.0000 </r>
       <r>   -18.6305     0.0000     6.0000 </r>
       <r>   -18.5454     0.0000     6.0000 </r>
       <r>   -18.4603     0.0000     6.0000 </r>
       <r>   -18.3753     0.0000     6.0000 </r>
       <r>   -18.2902     0.0000     6.0000 </r>
       <r>   -18.2051     0.0000     6.0000 </r>
       <r>   -18.1200     0.0015     6.0001 </r>
       <r>   -18.0349     1.7875     6.1522 </r>
       <r>   -17.9498    17.8422     7.6705 </r>
       <r>   -17.8647     3.8637     7.9993 </r>
       <r>   -17.7796     0.0085     8.0000 </r>
       <r>   -17.6945     0.0000     8.0000 </r>
       <r>   -17.6094     0.0000     8.0000 </r>
       <r>   -17.5243     0.0000     8.0000 </r>
       <r>   -17.4392     0.0000     8.0000 </r>
       <r>   -17.3541     0.0000     8.0000 </r>
       <r>   -17.2690     0.0000     8.0000 </r>
       <r>   -17.1839     0.0000     8.0000 </r>
       <r>   -17.0988     0.0000     8.0000 </r>
       <r>   -17.0137     0.0000     8.0000 </r>
       <r>   -16.9286     0.0000     8.0000 </r>
       <r>   -16.8436     0.0000     8.0000 </r>
       <r>   -16.7585     0.0000     8.0000 </r>
       <r>   -16.6734     0.0000     8.0000 </r>
       <r>   -16.5883     0.0000     8.0000 </r>
       <r>   -16.5032     0.0000     8.0000 </r>
       <r>   -16.4181     0.0000     8.0000 </r>
       <r>   -16.3330     0.0000     8.0000 </r>
       <r>   -16.2479     0.0000     8.0000 </r>
       <r>   -16.1628     0.0007     8.0001 </r>
       <r>   -16.0777     1.2307     8.1048 </r>
       <r>   -15.9926    17.1880     9.5674 </r>
       <r>   -15.9075     5.0674     9.9986 </r>
       <r>   -15.8224     0.0166    10.0000 </r>
       <r>   -15.7373     0.0000    10.0000 </r>
       <r>   -15.6522     0.0000    10.0000 </r>
       <r>   -15.5671     0.0000    10.0000 </r>
       <r>   -15.4820     0.0000    10.0000 </r>
       <r>   -15.3970     0.1986    10.0169 </r>
       <r>   -15.3119    11.7216    11.0143 </r>
       <r>   -15.2268    11.4031    11.9847 </r>
       <r>   -15.1417     0.1800    12.0000 </r>
       <r>   -15.0566     0.0000    12.0000 </r>
       <r>   -14.9715     0.0000    12.0000 </r>
       <r>   -14.8864     0.0000    12.0000 </r>
       <r>   -14.8013     0.0000    12.0000 </r>
       <r>   -14.7162     0.0000    12.0000 </r>
       <r>   -14.6311     0.0000    12.0000 </r>
       <r>   -14.5460     0.0000    12.0000 </r>
       <r>   -14.4609     0.0000    12.0000 </r>
       <r>   -14.3758     0.0000    12.0000 </r>
       <r>   -14.2907     0.0000    12.0000 </r>
       <r>   -14.2056     0.0000    12.0000 </r>
       <r>   -14.1205     0.0000    12.0000 </r>
       <r>   -14.0354     0.0000    12.0000 </r>
       <r>   -13.9504     0.0000    12.0000 </r>
       <r>   -13.8653     0.0000    12.0000 </r>
       <r>   -13.7802     0.0000    12.0000 </r>
       <r>   -13.6951     0.0000    12.0000 </r>
       <r>   -13.6100     0.0000    12.0000 </r>
       <r>   -13.5249     0.0000    12.0000 </r>
       <r>   -13.4398     0.0000    12.0000 </r>
       <r>   -13.3547     0.0000    12.0000 </r>
       <r>   -13.2696     0.0000    12.0000 </r>
       <r>   -13.1845     0.0000    12.0000 </r>
       <r>   -13.0994     0.0014    12.0001 </r>
       <r>   -13.0143     1.7409    12.1483 </r>
       <r>   -12.9292    21.8908    14.0110 </r>
       <r>   -12.8441    21.7022    15.8578 </r>
       <r>   -12.7590     1.6703    15.9999 </r>
       <r>   -12.6739     0.0012    16.0000 </r>
       <r>   -12.5888     0.0000    16.0000 </r>
       <r>   -12.5037     0.0000    16.0000 </r>
       <r>   -12.4187     0.0000    16.0000 </r>
       <r>   -12.3336     0.0000    16.0000 </r>
       <r>   -12.2485     0.0000    16.0000 </r>
       <r>   -12.1634     0.0110    16.0009 </r>
       <r>   -12.0783     4.2941    16.3663 </r>
       <r>   -11.9932    17.6387    17.8673 </r>
       <r>   -11.9081     1.5586    17.9999 </r>
       <r>   -11.8230     0.0011    18.0000 </r>
       <r>   -11.7379     0.0000    18.0000 </r>
       <r>   -11.6528     0.0000    18.0000 </r>
       <r>   -11.5677     0.0715    18.0061 </r>
       <r>   -11.4826     8.5839    18.7365 </r>
       <r>   -11.3975    14.3965    19.9616 </r>
       <r>   -11.3124     0.4514    20.0000 </r>
       <r>   -11.2273     0.0001    20.0000 </r>
       <r>   -11.1422     0.0000    20.0000 </r>
       <r>   -11.0571     0.0000    20.0000 </r>
       <r>   -10.9721     0.0000    20.0000 </r>
       <r>   -10.8870     0.0000    20.0000 </r>
       <r>   -10.8019     0.1867    20.0159 </r>
       <r>   -10.7168    11.5213    20.9963 </r>
       <r>   -10.6317    11.6038    21.9837 </r>
       <r>   -10.5466     0.1915    22.0000 </r>
       <r>   -10.4615     0.0000    22.0000 </r>
       <r>   -10.3764     0.0000    22.0000 </r>
       <r>   -10.2913     0.0000    22.0000 </r>
       <r>   -10.2062     0.0708    22.0060 </r>
       <r>   -10.1211     8.5556    22.7341 </r>
       <r>   -10.0360    14.4219    23.9613 </r>
       <r>    -9.9509     0.4550    24.0000 </r>
       <r>    -9.8658     0.1169    24.0099 </r>
       <r>    -9.7807    10.0376    24.8641 </r>
       <r>    -9.6956    13.0507    25.9746 </r>
       <r>    -9.6105     0.2982    26.0000 </r>
       <r>    -9.5255     0.0000    26.0000 </r>
       <r>    -9.4404     0.0000    26.0000 </r>
       <r>    -9.3553     0.0012    26.0001 </r>
       <r>    -9.2702     1.6641    26.1417 </r>
       <r>    -9.1851    17.7418    27.6514 </r>
       <r>    -9.1000     4.0866    27.9992 </r>
       <r>    -9.0149     0.0097    28.0000 </r>
       <r>    -8.9298     0.0000    28.0000 </r>
       <r>    -8.8447     0.0000    28.0000 </r>
       <r>    -8.7596     0.0045    28.0004 </r>
       <r>    -8.6745     2.9742    28.2535 </r>
       <r>    -8.5894    18.1048    29.7941 </r>
       <r>    -8.5043     2.4529    30.0028 </r>
       <r>    -8.4192     7.7029    30.6583 </r>
       <r>    -8.3341    32.5910    33.4316 </r>
       <r>    -8.2490     6.6548    33.9979 </r>
       <r>    -8.1639     0.0733    34.0041 </r>
       <r>    -8.0789     8.1255    34.6956 </r>
       <r>    -7.9938    30.6979    37.3078 </r>
       <r>    -7.9087     8.0871    37.9959 </r>
       <r>    -7.8236     0.0478    38.0000 </r>
       <r>    -7.7385     0.0000    38.0000 </r>
       <r>    -7.6534     0.0000    38.0000 </r>
       <r>    -7.5683     0.0000    38.0000 </r>
       <r>    -7.4832     0.0000    38.0000 </r>
       <r>    -7.3981     0.0000    38.0000 </r>
       <r>    -7.3130     0.0000    38.0000 </r>
       <r>    -7.2279     0.0000    38.0000 </r>
       <r>    -7.1428     0.0000    38.0000 </r>
       <r>    -7.0577     0.0000    38.0000 </r>
       <r>    -6.9726     0.1062    38.0090 </r>
       <r>    -6.8875     9.7481    38.8385 </r>
       <r>    -6.8024    13.3248    39.9724 </r>
       <r>    -6.7173     0.3242    40.0000 </r>
       <r>    -6.6322     0.0000    40.0000 </r>
       <r>    -6.5472     0.0000    40.0000 </r>
       <r>    -6.4621     0.0000    40.0000 </r>
       <r>    -6.3770     0.0000    40.0000 </r>
       <r>    -6.2919     0.0000    40.0000 </r>
       <r>    -6.2068     0.0000    40.0000 </r>
       <r>    -6.1217     0.0000    40.0000 </r>
       <r>    -6.0366     0.0000    40.0000 </r>
       <r>    -5.9515     0.0008    40.0001 </r>
       <r>    -5.8664     1.3337    40.1136 </r>
       <r>    -5.7813    17.3542    41.5903 </r>
       <r>    -5.6962     4.8001    41.9988 </r>
       <r>    -5.6111     0.0145    42.0000 </r>
       <r>    -5.5260     0.0000    42.0000 </r>
       <r>    -5.4409     0.0000    42.0000 </r>
       <r>    -5.3558     0.0000    42.0000 </r>
       <r>    -5.2707     0.0000    42.0000 </r>
       <r>    -5.1856     0.0000    42.0000 </r>
       <r>    -5.1006     0.0000    42.0000 </r>
       <r>    -5.0155     0.0000    42.0000 </r>
       <r>    -4.9304     0.0000    42.0000 </r>
       <r>    -4.8453     0.0000    42.0000 </r>
       <r>    -4.7602     0.0000    42.0000 </r>
       <r>    -4.6751     0.0000    42.0000 </r>
       <r>    -4.5900     0.0000    42.0000 </r>
       <r>    -4.5049     0.0000    42.0000 </r>
       <r>    -4.4198     0.0000    42.0000 </r>
       <r>    -4.3347     0.0000    42.0000 </r>
       <r>    -4.2496     0.0000    42.0000 </r>
       <r>    -4.1645     0.0000    42.0000 </r>
       <r>    -4.0794     0.0000    42.0000 </r>
       <r>    -3.9943     0.0000    42.0000 </r>
       <r>    -3.9092     0.0000    42.0000 </r>
       <r>    -3.8241     0.0000    42.0000 </r>
       <r>    -3.7390     0.0000    42.0000 </r>
       <r>    -3.6540     0.0000    42.0000 </r>
       <r>    -3.5689     0.0000    42.0000 </r>
       <r>    -3.4838     0.0000    42.0000 </r>
       <r>    -3.3987     0.0000    42.0000 </r>
       <r>    -3.3136     0.0000    42.0000 </r>
       <r>    -3.2285     0.0000    42.0000 </r>
       <r>    -3.1434     0.0000    42.0000 </r>
       <r>    -3.0583     0.0000    42.0000 </r>
       <r>    -2.9732     0.0000    42.0000 </r>
       <r>    -2.8881     0.0000    42.0000 </r>
       <r>    -2.8030     0.0000    42.0000 </r>
       <r>    -2.7179     0.0000    42.0000 </r>
       <r>    -2.6328     0.0000    42.0000 </r>
       <r>    -2.5477     0.0000    42.0000 </r>
       <r>    -2.4626     0.2105    42.0179 </r>
       <r>    -2.3775    11.9103    43.0314 </r>
       <r>    -2.2924    11.3226    43.9949 </r>
       <r>    -2.2073    10.0128    44.8469 </r>
       <r>    -2.1223    13.2352    45.9732 </r>
       <r>    -2.0372     0.3154    46.0000 </r>
       <r>    -1.9521     0.0000    46.0000 </r>
       <r>    -1.8670     0.0000    46.0000 </r>
       <r>    -1.7819     0.0000    46.0000 </r>
       <r>    -1.6968     0.0000    46.0000 </r>
       <r>    -1.6117     0.0000    46.0000 </r>
       <r>    -1.5266     0.0000    46.0000 </r>
       <r>    -1.4415     0.0000    46.0000 </r>
       <r>    -1.3564     0.0000    46.0000 </r>
       <r>    -1.2713     0.0000    46.0000 </r>
       <r>    -1.1862     0.0000    46.0000 </r>
       <r>    -1.1011     0.0000    46.0000 </r>
       <r>    -1.0160     0.0000    46.0000 </r>
       <r>    -0.9309     0.0000    46.0000 </r>
       <r>    -0.8458     0.0003    46.0000 </r>
       <r>    -0.7607     0.8178    46.0696 </r>
       <r>    -0.6757    16.1800    47.4464 </r>
       <r>    -0.5906     6.4734    47.9973 </r>
       <r>    -0.5055     0.0318    48.0000 </r>
       <r>    -0.4204     0.0000    48.0000 </r>
       <r>    -0.3353     0.1373    48.0117 </r>
       <r>    -0.2502    10.5410    48.9087 </r>
       <r>    -0.1651    12.6734    49.9871 </r>
       <r>    -0.0800     9.9903    50.8372 </r>
       <r>     0.0051    14.2511    52.0499 </r>
       <r>     0.0902    16.7965    53.4792 </r>
       <r>     0.1753     6.1754    54.0047 </r>
       <r>     0.2604     9.0029    54.7708 </r>
       <r>     0.3455    14.0413    55.9656 </r>
       <r>     0.4306     0.4652    56.0052 </r>
       <r>     0.5157     8.1478    56.6985 </r>
       <r>     0.6008    14.7841    57.9566 </r>
       <r>     0.6859     0.5224    58.0010 </r>
       <r>     0.7709     4.4708    58.3815 </r>
       <r>     0.8560    17.5444    59.8744 </r>
       <r>     0.9411     1.4752    59.9999 </r>
       <r>     1.0262     0.0010    60.0000 </r>
       <r>     1.1113     0.0000    60.0000 </r>
       <r>     1.1964     0.0000    60.0000 </r>
       <r>     1.2815     0.0000    60.0000 </r>
       <r>     1.3666     0.0000    60.0000 </r>
       <r>     1.4517     0.0000    60.0000 </r>
       <r>     1.5368     0.0000    60.0000 </r>
       <r>     1.6219     0.0000    60.0000 </r>
       <r>     1.7070     0.0000    60.0000 </r>
       <r>     1.7921     0.0000    60.0000 </r>
       <r>     1.8772     0.0000    60.0000 </r>
       <r>     1.9623     0.0000    60.0000 </r>
      </set>
     </set>
    </array>
   </total>
  </dos>
 </calculation>
 <structure name="finalpos" >
  <crystal>
   <varray name="basis" >
    <v>      15.40225029       0.00000000       0.00000000 </v>
    <v>       0.00000000      15.40225029       0.00000000 </v>
    <v>       0.00000000       0.00000000      15.40225029 </v>
   </varray>
   <i name="volume">   3653.86527022 </i>
   <varray name="rec_basis" >
    <v>       0.06492558       0.00000000       0.00000000 </v>
    <v>       0.00000000       0.06492558       0.00000000 </v>
    <v>       0.00000000       0.00000000       0.06492558 </v>
   </varray>
  </crystal>
  <varray name="positions" >
   <v>       0.34309201       0.43793267       0.57838257 </v>
   <v>       0.33817662       0.53283735       0.58024220 </v>
   <v>       0.40393176       0.58909515       0.56833284 </v>
   <v>       0.41441861       0.38917113       0.56543412 </v>
   <v>       0.42555628       0.44210026       0.35704470 </v>
   <v>       0.43064608       0.52911015       0.35924281 </v>
   <v>       0.51073676       0.57464101       0.36686473 </v>
   <v>       0.28131273       0.40426669       0.58829080 </v>
   <v>       0.47861495       0.41764578       0.55592711 </v>
   <v>       0.41066269       0.31850982       0.56519025 </v>
   <v>       0.27340738       0.55950344       0.59212856 </v>
   <v>       0.47056576       0.56813663       0.55647928 </v>
   <v>       0.39300272       0.65895922       0.57072414 </v>
   <v>       0.36287131       0.40978830       0.35225412 </v>
   <v>       0.48335234       0.40140147       0.36013567 </v>
   <v>       0.37238499       0.56941711       0.35662199 </v>
   <v>       0.57574751       0.61323930       0.37396319 </v>
  </varray>
 </structure>
</modeling>
