unknown system                          
           1
    15.402250    0.000000    0.000000
     0.000000   15.402250    0.000000
     0.000000    0.000000   15.402250
   C    H    N 
     7     9     1
Direct configuration=     1
   0.34309201  0.43793267  0.57838257
   0.33817662  0.53283735  0.58024220
   0.40393176  0.58909515  0.56833284
   0.41441861  0.38917113  0.56543412
   0.42555628  0.44210026  0.35704470
   0.43064608  0.52911015  0.35924281
   0.51073676  0.57464101  0.36686473
   0.28131273  0.40426669  0.58829080
   0.47861495  0.41764578  0.55592711
   0.41066269  0.31850982  0.56519025
   0.27340738  0.55950344  0.59212856
   0.47056576  0.56813663  0.55647928
   0.39300272  0.65895922  0.57072414
   0.36287131  0.40978830  0.35225412
   0.48335234  0.40140147  0.36013567
   0.37238499  0.56941711  0.35662199
   0.57574751  0.61323930  0.37396319
