 vasp.6.3.2 27Jun22 (build Oct 05 2023 17:59:42) gamma-only                     
  
 executed on             LinuxIFC date 2024.04.08  10:31:46
 running on   10 total cores
 distrk:  each k-point on   10 cores,    1 groups
 distr:  one band on NCORE=   1 cores,   10 groups


--------------------------------------------------------------------------------------------------------


 INCAR:
   ENCUT = 400.000000
   GGA = PE
   IVDW = 11
   ISMEAR = 0
   SIGMA = 0.050000
   ALGO = Fast
   ISPIN = 1
   NPAR = 4
   LCHARG = .FALSE.
   LWAVE = .FALSE.

 POTCAR:    PAW_PBE C 08Apr2002                   
 POTCAR:    PAW_PBE H 15Jun2001                   
 POTCAR:    PAW_PBE N 08Apr2002                   
 -----------------------------------------------------------------------------
|                                                                             |
|           W    W    AA    RRRRR   N    N  II  N    N   GGGG   !!!           |
|           W    W   A  A   R    R  NN   N  II  NN   N  G    G  !!!           |
|           W    W  A    A  R    R  N N  N  II  N N  N  G       !!!           |
|           W WW W  AAAAAA  RRRRR   N  N N  II  N  N N  G  GGG   !            |
|           WW  WW  A    A  R   R   N   NN  II  N   NN  G    G                |
|           W    W  A    A  R    R  N    N  II  N    N   GGGG   !!!           |
|                                                                             |
|     The value NPAR = 4 specified in the INCAR file was overwritten,         |
|     because it was not compatible with the 10 processes available:          |
|     NPAR = 10                                                               |
|     was used instead, please check that this makes sense for your           |
|     machine.                                                                |
|                                                                             |
 -----------------------------------------------------------------------------

 -----------------------------------------------------------------------------
|                                                                             |
|           W    W    AA    RRRRR   N    N  II  N    N   GGGG   !!!           |
|           W    W   A  A   R    R  NN   N  II  NN   N  G    G  !!!           |
|           W    W  A    A  R    R  N N  N  II  N N  N  G       !!!           |
|           W WW W  AAAAAA  RRRRR   N  N N  II  N  N N  G  GGG   !            |
|           WW  WW  A    A  R   R   N   NN  II  N   NN  G    G                |
|           W    W  A    A  R    R  N    N  II  N    N   GGGG   !!!           |
|                                                                             |
|     For optimal performance we recommend to set                             |
|       NCORE = 2 up to number-of-cores-per-socket                            |
|     NCORE specifies how many cores store one orbital (NPAR=cpu/NCORE).      |
|     This setting can greatly improve the performance of VASP for DFT.       |
|     The default, NCORE=1 might be grossly inefficient on modern             |
|     multi-core architectures or massively parallel machines. Do your        |
|     own testing! More info at https://www.vasp.at/wiki/index.php/NCORE      |
|     Unfortunately you need to use the default for GW and RPA                |
|     calculations (for HF NCORE is supported but not extensively tested      |
|     yet).                                                                   |
|                                                                             |
 -----------------------------------------------------------------------------

 POTCAR:    PAW_PBE C 08Apr2002                   
   SHA256 =  253f7b50bb8d59471dbedb8285d89021f4a42ed1a2c5d38a03a736e69125dd95 C/POTCAR              
   COPYR  = (c) Copyright 08Apr2002 Georg Kresse                                                    
   COPYR  = This file is part of the software VASP. Any use, copying, and all other rights are regul
   COPYR  = If you do not have a valid VASP license, you may not use, copy or distribute this file. 
   VRHFIN =C: s2p2                                                                                  
   LEXCH  = PE                                                                                      
   EATOM  =   147.1560 eV,   10.8157 Ry                                                             
                                                                                                    
   TITEL  = PAW_PBE C 08Apr2002                                                                     
   LULTRA =        F    use ultrasoft PP ?                                                          
   IUNSCR =        1    unscreen: 0-lin 1-nonlin 2-no                                               
   RPACOR =    1.200    partial core radius                                                         
   POMASS =   12.011; ZVAL   =    4.000    mass and valenz                                          
   RCORE  =    1.500    outmost cutoff radius                                                       
   RWIGS  =    1.630; RWIGS  =    0.863    wigner-seitz radius (au A)                               
   ENMAX  =  400.000; ENMIN  =  300.000 eV                                                          
   ICORE  =        2    local potential                                                             
   LCOR   =        T    correct aug charges                                                         
   LPAW   =        T    paw PP                                                                      
   EAUG   =  644.873                                                                                
   DEXC   =    0.000                                                                                
   RMAX   =    1.529    core radius for proj-oper                                                   
   RAUG   =    1.300    factor for augmentation sphere                                              
   RDEP   =    1.501    radius for radial grids                                                     
   RDEPT  =    1.300    core radius for aug-charge                                                  
                                                                                                    
   Atomic configuration                                                                             
    4 entries                                                                                       
     n  l   j            E        occ.                                                              
     1  0  0.50      -273.3789   2.0000                                                             
     2  0  0.50       -13.7508   2.0000                                                             
     2  1  0.50        -5.2854   2.0000                                                             
     3  2  1.50        -5.4423   0.0000                                                             
   Description                                                                                      
     l       E           TYP  RCUT    TYP  RCUT                                                     
     0    -13.7508458     23  1.200                                                                 
     0     -8.2022199     23  1.200                                                                 
     1     -5.2854383     23  1.500                                                                 
     1     34.0145650     23  1.500                                                                 
     2     -5.4423304      7  1.500                                                                 
  local pseudopotential read in
  partial core-charges read in
  partial kinetic energy density read in
  atomic valenz-charges read in
  non local Contribution for L=           0  read in
    real space projection operators read in
  non local Contribution for L=           0  read in
    real space projection operators read in
  non local Contribution for L=           1  read in
    real space projection operators read in
  non local Contribution for L=           1  read in
    real space projection operators read in
    PAW grid and wavefunctions read in
 
   number of l-projection  operators is LMAX  =           4
   number of lm-projection operators is LMMAX =           8
 
 POTCAR:    PAW_PBE H 15Jun2001                   
   SHA256 =  030f79b5d3ab3cf0e668861823c8fb652ff669f3e15e46930bd03bfd63a607b6 H/POTCAR              
   COPYR  = (c) Copyright 15Jun2001 Georg Kresse                                                    
   COPYR  = This file is part of the software VASP. Any use, copying, and all other rights are regul
   COPYR  = If you do not have a valid VASP license, you may not use, copy or distribute this file. 
   VRHFIN =H: ultrasoft test                                                                        
   LEXCH  = PE                                                                                      
   EATOM  =    12.4884 eV,    0.9179 Ry                                                             
                                                                                                    
   TITEL  = PAW_PBE H 15Jun2001                                                                     
   LULTRA =        F    use ultrasoft PP ?                                                          
   IUNSCR =        0    unscreen: 0-lin 1-nonlin 2-no                                               
   RPACOR =    0.000    partial core radius                                                         
   POMASS =    1.000; ZVAL   =    1.000    mass and valenz                                          
   RCORE  =    1.100    outmost cutoff radius                                                       
   RWIGS  =    0.700; RWIGS  =    0.370    wigner-seitz radius (au A)                               
   ENMAX  =  250.000; ENMIN  =  200.000 eV                                                          
   RCLOC  =    0.701    cutoff for local pot                                                        
   LCOR   =        T    correct aug charges                                                         
   LPAW   =        T    paw PP                                                                      
   EAUG   =  400.000                                                                                
   RMAX   =    1.123    core radius for proj-oper                                                   
   RAUG   =    1.200    factor for augmentation sphere                                              
   RDEP   =    1.112    radius for radial grids                                                     
   RDEPT  =    0.926    core radius for aug-charge                                                  
                                                                                                    
   Atomic configuration                                                                             
    2 entries                                                                                       
     n  l   j            E        occ.                                                              
     1  0  0.50        -6.4927   1.0000                                                             
     2  1  0.50        -3.4015   0.0000                                                             
   Description                                                                                      
     l       E           TYP  RCUT    TYP  RCUT                                                     
     0     -6.4927494     23  1.100                                                                 
     0      6.8029130     23  1.100                                                                 
     1     -4.0817478     23  1.100                                                                 
  local pseudopotential read in
  atomic valenz-charges read in
  non local Contribution for L=           0  read in
    real space projection operators read in
  non local Contribution for L=           0  read in
    real space projection operators read in
  non local Contribution for L=           1  read in
    real space projection operators read in
    PAW grid and wavefunctions read in
 
   number of l-projection  operators is LMAX  =           3
   number of lm-projection operators is LMMAX =           5
 
 POTCAR:    PAW_PBE N 08Apr2002                   
   SHA256 =  e053789ff3a61a86a1b75d8a110fcc91f86041011e7b0817c7c99e4e8a6349d7 N/POTCAR              
   COPYR  = (c) Copyright 08Apr2002 Georg Kresse                                                    
   COPYR  = This file is part of the software VASP. Any use, copying, and all other rights are regul
   COPYR  = If you do not have a valid VASP license, you may not use, copy or distribute this file. 
   VRHFIN =N: s2p3                                                                                  
   LEXCH  = PE                                                                                      
   EATOM  =   264.5486 eV,   19.4438 Ry                                                             
                                                                                                    
   TITEL  = PAW_PBE N 08Apr2002                                                                     
   LULTRA =        F    use ultrasoft PP ?                                                          
   IUNSCR =        1    unscreen: 0-lin 1-nonlin 2-no                                               
   RPACOR =    1.200    partial core radius                                                         
   POMASS =   14.001; ZVAL   =    5.000    mass and valenz                                          
   RCORE  =    1.500    outmost cutoff radius                                                       
   RWIGS  =    1.400; RWIGS  =    0.741    wigner-seitz radius (au A)                               
   ENMAX  =  400.000; ENMIN  =  300.000 eV                                                          
   ICORE  =        2    local potential                                                             
   LCOR   =        T    correct aug charges                                                         
   LPAW   =        T    paw PP                                                                      
   EAUG   =  627.112                                                                                
   DEXC   =    0.000                                                                                
   RMAX   =    1.529    core radius for proj-oper                                                   
   RAUG   =    1.300    factor for augmentation sphere                                              
   RDEP   =    1.514    radius for radial grids                                                     
   RDEPT  =    1.338    core radius for aug-charge                                                  
                                                                                                    
   Atomic configuration                                                                             
    4 entries                                                                                       
     n  l   j            E        occ.                                                              
     1  0  0.50      -384.7179   2.0000                                                             
     2  0  0.50       -18.5828   2.0000                                                             
     2  1  0.50        -7.0898   3.0000                                                             
     3  2  1.50        -6.8029   0.0000                                                             
   Description                                                                                      
     l       E           TYP  RCUT    TYP  RCUT                                                     
     0    -18.5828119     23  1.200                                                                 
     0    -13.5018863     23  1.200                                                                 
     1     -7.0897853     23  1.500                                                                 
     1      9.5240782     23  1.500                                                                 
     2     -6.8029130      7  1.500                                                                 
  local pseudopotential read in
  partial core-charges read in
  partial kinetic energy density read in
  atomic valenz-charges read in
  non local Contribution for L=           0  read in
    real space projection operators read in
  non local Contribution for L=           0  read in
    real space projection operators read in
  non local Contribution for L=           1  read in
    real space projection operators read in
  non local Contribution for L=           1  read in
    real space projection operators read in
    PAW grid and wavefunctions read in
 
   number of l-projection  operators is LMAX  =           4
   number of lm-projection operators is LMMAX =           8
 
 -----------------------------------------------------------------------------
|                                                                             |
|               ----> ADVICE to this user running VASP <----                  |
|                                                                             |
|     You have a (more or less) 'large supercell' and for larger cells it     |
|     might be more efficient to use real-space projection operators.         |
|     Therefore, try LREAL= Auto in the INCAR file.                           |
|     Mind: For very accurate calculation, you might also keep the            |
|     reciprocal projection scheme (i.e. LREAL=.FALSE.).                      |
|                                                                             |
 -----------------------------------------------------------------------------

  PAW_PBE C 08Apr2002                   :
 energy of atom  1       EATOM= -147.1560
 kinetic energy error for atom=    0.0288 (will be added to EATOM!!)
  PAW_PBE H 15Jun2001                   :
 energy of atom  2       EATOM=  -12.4884
 kinetic energy error for atom=    0.0098 (will be added to EATOM!!)
  PAW_PBE N 08Apr2002                   :
 energy of atom  3       EATOM= -264.5486
 kinetic energy error for atom=    0.0736 (will be added to EATOM!!)
 
 
 POSCAR:  C  H  N
  positions in cartesian coordinates
  No initial velocities read in
 exchange correlation table for  LEXCH =        8
   RHO(1)=    0.500       N(1)  =     2000
   RHO(2)=  100.500       N(2)  =     4000

 VTST: version 4.1, (05/19/21)

 CHAIN: initializing optimizer
 
 OPT: Using VASP Dynamics algorithm
 CHAIN: Read ICHAIN            0
 
 POSCAR:  C  H  N
  positions in cartesian coordinates
  No initial velocities read in
 


--------------------------------------------------------------------------------------------------------


 ion  position               nearest neighbor table
   1  0.343  0.438  0.578-   8 1.09   4 1.35   2 1.46
   2  0.338  0.533  0.580-  11 1.09   3 1.35   1 1.46
   3  0.404  0.589  0.568-  13 1.09  12 1.09   2 1.35
   4  0.414  0.389  0.565-  10 1.09   9 1.09   1 1.35
   5  0.426  0.442  0.357-  14 1.09  15 1.09   6 1.34
   6  0.431  0.529  0.359-  16 1.09   5 1.34   7 1.42
   7  0.511  0.575  0.367-  17 1.17   6 1.42
   8  0.281  0.404  0.588-   1 1.09
   9  0.479  0.418  0.556-   4 1.09
  10  0.411  0.319  0.565-   4 1.09
  11  0.273  0.560  0.592-   2 1.09
  12  0.471  0.568  0.556-   3 1.09
  13  0.393  0.659  0.571-   3 1.09
  14  0.363  0.410  0.352-   5 1.09
  15  0.483  0.401  0.360-   5 1.09
  16  0.372  0.569  0.357-   6 1.09
  17  0.576  0.613  0.374-   7 1.17
 
  LATTYP: Found a simple cubic cell.
 ALAT       =    15.4022502899
  
  Lattice vectors:
  
 A1 = (  15.4022502899,   0.0000000000,   0.0000000000)
 A2 = (   0.0000000000,  15.4022502899,   0.0000000000)
 A3 = (   0.0000000000,   0.0000000000,  15.4022502899)


Analysis of symmetry for initial positions (statically):
=====================================================================
 Subroutine PRICEL returns:
 Original cell was already a primitive cell.
 

 Routine SETGRP: Setting up the symmetry group for a 
 simple cubic supercell.


 Subroutine GETGRP returns: Found  1 space group operations
 (whereof  1 operations were pure point group operations)
 out of a pool of 48 trial point group operations.


The static configuration has the point symmetry C_1 .


Analysis of symmetry for dynamics (positions and initial velocities):
=====================================================================
 Subroutine PRICEL returns:
 Original cell was already a primitive cell.
 

 Routine SETGRP: Setting up the symmetry group for a 
 simple cubic supercell.


 Subroutine GETGRP returns: Found  1 space group operations
 (whereof  1 operations were pure point group operations)
 out of a pool of 48 trial point group operations.


The dynamic configuration has the point symmetry C_1 .


 Subroutine INISYM returns: Found  1 space group operations
 (whereof  1 operations are pure point group operations),
 and found     1 'primitive' translations


----------------------------------------------------------------------------------------

                                     Primitive cell                                     

  volume of cell :    3653.8653

  direct lattice vectors                    reciprocal lattice vectors
    15.402250290  0.000000000  0.000000000     0.064925578  0.000000000  0.000000000
     0.000000000 15.402250290  0.000000000     0.000000000  0.064925578  0.000000000
     0.000000000  0.000000000 15.402250290     0.000000000  0.000000000  0.064925578

  length of vectors
    15.402250290 15.402250290 15.402250290     0.064925578  0.064925578  0.064925578

  position of ions in fractional coordinates (direct lattice)
     0.343092010  0.437932670  0.578382569
     0.338176617  0.532837353  0.580242197
     0.403931755  0.589095146  0.568332841
     0.414418610  0.389171129  0.565434124
     0.425556279  0.442100259  0.357044699
     0.430646079  0.529110155  0.359242815
     0.510736764  0.574641006  0.366864732
     0.281312728  0.404266687  0.588290801
     0.478614953  0.417645780  0.555927110
     0.410662692  0.318509818  0.565190254
     0.273407378  0.559503444  0.592128563
     0.470565760  0.568136628  0.556479282
     0.393002720  0.658959223  0.570724140
     0.362871313  0.409788299  0.352254115
     0.483352340  0.401401474  0.360135669
     0.372384989  0.569417113  0.356621992
     0.575747508  0.613239303  0.373963190

  ion indices of the primitive-cell ions
   primitive index   ion index
                 1           1
                 2           2
                 3           3
                 4           4
                 5           5
                 6           6
                 7           7
                 8           8
                 9           9
                10          10
                11          11
                12          12
                13          13
                14          14
                15          15
                16          16
                17          17

----------------------------------------------------------------------------------------

 
 
 KPOINTS: KPOINTS created by Atomic Simulation Env

Automatic generation of k-mesh.
 Grid dimensions read from file:
 generate k-points for:    1    1    1

 Generating k-lattice:

  Cartesian coordinates                     Fractional coordinates (reciprocal lattice)
     0.064925578  0.000000000  0.000000000     1.000000000  0.000000000  0.000000000
     0.000000000  0.064925578  0.000000000     0.000000000  1.000000000  0.000000000
     0.000000000  0.000000000  0.064925578     0.000000000  0.000000000  1.000000000

  Length of vectors
     0.064925578  0.064925578  0.064925578

  Shift w.r.t. Gamma in fractional coordinates (k-lattice)
     0.000000000  0.000000000  0.000000000

 
 Subroutine IBZKPT returns following result:
 ===========================================
 
 Found      1 irreducible k-points:
 
 Following reciprocal coordinates:
            Coordinates               Weight
  0.000000  0.000000  0.000000      1.000000
 
 Following cartesian coordinates:
            Coordinates               Weight
  0.000000  0.000000  0.000000      1.000000
 


--------------------------------------------------------------------------------------------------------




 Dimension of arrays:
   k-points           NKPTS =      1   k-points in BZ     NKDIM =      1   number of bands    NBANDS=     30
   number of dos      NEDOS =    301   number of ions     NIONS =     17
   non local maximal  LDIM  =      4   non local SUM 2l+1 LMDIM =      8
   total plane-waves  NPLWV = 512000
   max r-space proj   IRMAX =      1   max aug-charges    IRDMAX=   1924
   dimension x,y,z NGX =    80 NGY =   80 NGZ =   80
   dimension x,y,z NGXF=   160 NGYF=  160 NGZF=  160
   support grid    NGXF=   160 NGYF=  160 NGZF=  160
   ions per type =               7   9   1
   NGX,Y,Z   is equivalent  to a cutoff of   8.63,  8.63,  8.63 a.u.
   NGXF,Y,Z  is equivalent  to a cutoff of  17.27, 17.27, 17.27 a.u.

 SYSTEM =  unknown system                          
 POSCAR =   C  H  N                                

 Startparameter for this run:
   NWRITE =      2    write-flag & timer
   PREC   = normal    normal or accurate (medium, high low for compatibility)
   ISTART =      0    job   : 0-new  1-cont  2-samecut
   ICHARG =      2    charge: 1-file 2-atom 10-const
   ISPIN  =      1    spin polarized calculation?
   LNONCOLLINEAR =      F non collinear calculations
   LSORBIT =      F    spin-orbit coupling
   INIWAV =      1    electr: 0-lowe 1-rand  2-diag
   LASPH  =      F    aspherical Exc in radial PAW
 Electronic Relaxation 1
   ENCUT  =  400.0 eV  29.40 Ry    5.42 a.u.  25.12 25.12 25.12*2*pi/ulx,y,z
   ENINI  =  400.0     initial cutoff
   ENAUG  =  644.9 eV  augmentation charge cutoff
   NELM   =     60;   NELMIN=  2; NELMDL= -5     # of ELM steps 
   EDIFF  = 0.1E-03   stopping-criterion for ELM
   LREAL  =      F    real-space projection
   NLSPLINE    = F    spline interpolate recip. space projectors
   LCOMPAT=      F    compatible to vasp.4.4
   GGA_COMPAT  = T    GGA compatible to vasp.4.4-vasp.4.6
   LMAXPAW     = -100 max onsite density
   LMAXMIX     =    2 max onsite mixed and CHGCAR
   VOSKOWN=      0    Vosko Wilk Nusair interpolation
   ROPT   =    0.00000   0.00000   0.00000
 Ionic relaxation
   EDIFFG = 0.1E-02   stopping-criterion for IOM
   NSW    =      0    number of steps for IOM
   NBLOCK =      1;   KBLOCK =      1    inner block; outer block 
   IBRION =     -1    ionic relax: 0-MD 1-quasi-New 2-CG
   NFREE  =      0    steps in history (QN), initial steepest desc. (CG)
   ISIF   =      2    stress and relaxation
   IWAVPR =     10    prediction:  0-non 1-charg 2-wave 3-comb
   ISYM   =      2    0-nonsym 1-usesym 2-fastsym
   LCORR  =      T    Harris-Foulkes like correction to forces

   POTIM  = 0.5000    time-step for ionic-motion
   TEIN   =    0.0    initial temperature
   TEBEG  =    0.0;   TEEND  =   0.0 temperature during run
   SMASS  =  -3.00    Nose mass-parameter (am)
   estimated Nose-frequenzy (Omega)   =  0.10E-29 period in steps = 0.13E+47 mass=  -0.542E-26a.u.
   SCALEE = 1.0000    scale energy and forces
   NPACO  =    256;   APACO  = 10.0  distance and # of slots for P.C.
   PSTRESS=    0.0 pullay stress

  Mass of Ions in am
   POMASS =  12.01  1.00 14.00
  Ionic Valenz
   ZVAL   =   4.00  1.00  5.00
  Atomic Wigner-Seitz radii
   RWIGS  =  -1.00 -1.00 -1.00
  virtual crystal weights 
   VCA    =   1.00  1.00  1.00
   NELECT =      42.0000    total number of electrons
   NUPDOWN=      -1.0000    fix difference up-down

 DOS related values:
   EMIN   =  10.00;   EMAX   =-10.00  energy-range for DOS
   EFERMI =   0.00
   ISMEAR =     0;   SIGMA  =   0.05  broadening in eV -4-tet -1-fermi 0-gaus

 Electronic relaxation 2 (details)
   IALGO  =     68    algorithm
   LDIAG  =      T    sub-space diagonalisation (order eigenvalues)
   LSUBROT=      F    optimize rotation matrix (better conditioning)
   TURBO    =      0    0=normal 1=particle mesh
   IRESTART =      0    0=no restart 2=restart with 2 vectors
   NREBOOT  =      0    no. of reboots
   NMIN     =      0    reboot dimension
   EREF     =   0.00    reference energy to select bands
   IMIX   =      4    mixing-type and parameters
     AMIX     =   0.40;   BMIX     =  1.00
     AMIX_MAG =   1.60;   BMIX_MAG =  1.00
     AMIN     =   0.10
     WC   =   100.;   INIMIX=   1;  MIXPRE=   1;  MAXMIX= -45

 Intra band minimization:
   WEIMIN = 0.0000     energy-eigenvalue tresh-hold
   EBREAK =  0.83E-06  absolut break condition
   DEPER  =   0.30     relativ break condition  

   TIME   =   0.40     timestep for ELM

  volume/ion in A,a.u.               =     214.93      1450.44
  Fermi-wavevector in a.u.,A,eV,Ry     =   0.369465  0.698188  1.857259  0.136505
  Thomas-Fermi vector in A             =   1.296107
 
 Write flags
   LWAVE        =      F    write WAVECAR
   LDOWNSAMPLE  =      F    k-point downsampling of WAVECAR
   LCHARG       =      F    write CHGCAR
   LVTOT        =      F    write LOCPOT, total local potential
   LVHAR        =      F    write LOCPOT, Hartree potential only
   LELF         =      F    write electronic localiz. function (ELF)
   LORBIT       =      0    0 simple, 1 ext, 2 COOP (PROOUT), +10 PAW based schemes


 Dipole corrections
   LMONO  =      F    monopole corrections only (constant potential shift)
   LDIPOL =      F    correct potential (dipole corrections)
   IDIPOL =      0    1-x, 2-y, 3-z, 4-all directions 
   EPSILON=  1.0000000 bulk dielectric constant

 Exchange correlation treatment:
   GGA     =    PE    GGA type
   LEXCH   =     8    internal setting for exchange type
   LIBXC   =     F    Libxc                    
   VOSKOWN =     0    Vosko Wilk Nusair interpolation
   LHFCALC =     F    Hartree Fock is set to
   LHFONE  =     F    Hartree Fock one center treatment
   AEXX    =    0.0000 exact exchange contribution

 Linear response parameters
   LEPSILON=     F    determine dielectric tensor
   LRPA    =     F    only Hartree local field effects (RPA)
   LNABLA  =     F    use nabla operator in PAW spheres
   LVEL    =     F    velocity operator in full k-point grid
   CSHIFT  =0.1000    complex shift for real part using Kramers Kronig
   OMEGAMAX=  -1.0    maximum frequency
   DEG_THRESHOLD= 0.2000000E-02 threshold for treating states as degnerate
   RTIME   =   -0.100 relaxation time in fs
  (WPLASMAI=    0.000 imaginary part of plasma frequency in eV, 0.658/RTIME)
   DFIELD  = 0.0000000 0.0000000 0.0000000 field for delta impulse in time
 
  Optional k-point grid parameters
   LKPOINTS_OPT  =     F    use optional k-point grid
   KPOINTS_OPT_MODE=     1    mode for optional k-point grid
 
 Orbital magnetization related:
   ORBITALMAG=     F  switch on orbital magnetization
   LCHIMAG   =     F  perturbation theory with respect to B field
   DQ        =  0.001000  dq finite difference perturbation B field
   LLRAUG    =     F  two centre corrections for induced B field



--------------------------------------------------------------------------------------------------------


 Static calculation
 charge density and potential will be updated during run
 non-spin polarized calculation
 RMM-DIIS sequential band-by-band and
  variant of blocked Davidson during initial phase
 perform sub-space diagonalisation
    before iterative eigenvector-optimisation
 modified Broyden-mixing scheme, WC =      100.0
 initial mixing is a Kerker type mixing with AMIX =  0.4000 and BMIX =      1.0000
 Hartree-type preconditioning will be used
 using additional bands            9
 reciprocal scheme for non local part
 use partial core corrections
 calculate Harris-corrections to forces 
   (improved forces if not selfconsistent)
 use gradient corrections 
 use of overlap-Matrix (Vanderbilt PP)
 Gauss-broadening in eV      SIGMA  =   0.05


--------------------------------------------------------------------------------------------------------


  energy-cutoff  :      400.00
  volume of cell :     3653.87
      direct lattice vectors                 reciprocal lattice vectors
    15.402250290  0.000000000  0.000000000     0.064925578  0.000000000  0.000000000
     0.000000000 15.402250290  0.000000000     0.000000000  0.064925578  0.000000000
     0.000000000  0.000000000 15.402250290     0.000000000  0.000000000  0.064925578

  length of vectors
    15.402250290 15.402250290 15.402250290     0.064925578  0.064925578  0.064925578


 
 k-points in units of 2pi/SCALE and weight: KPOINTS created by Atomic Simulation Env
   0.00000000  0.00000000  0.00000000       1.000
 
 k-points in reciprocal lattice and weights: KPOINTS created by Atomic Simulation Env
   0.00000000  0.00000000  0.00000000       1.000
 
 position of ions in fractional coordinates (direct lattice) 
   0.34309201  0.43793267  0.57838257
   0.33817662  0.53283735  0.58024220
   0.40393176  0.58909515  0.56833284
   0.41441861  0.38917113  0.56543412
   0.42555628  0.44210026  0.35704470
   0.43064608  0.52911015  0.35924281
   0.51073676  0.57464101  0.36686473
   0.28131273  0.40426669  0.58829080
   0.47861495  0.41764578  0.55592711
   0.41066269  0.31850982  0.56519025
   0.27340738  0.55950344  0.59212856
   0.47056576  0.56813663  0.55647928
   0.39300272  0.65895922  0.57072414
   0.36287131  0.40978830  0.35225412
   0.48335234  0.40140147  0.36013567
   0.37238499  0.56941711  0.35662199
   0.57574751  0.61323930  0.37396319
 
 position of ions in cartesian coordinates  (Angst):
   5.28438901  6.74514859  8.90839310
   5.20868090  8.20689428  8.93703554
   6.22145799  9.07339089  8.75360466
   6.38297916  5.99411113  8.70895790
   6.55452433  6.80933885  5.49929182
   6.63291869  8.14948703  5.53314774
   7.86649547  8.85076460  5.65054243
   4.33284905  6.22661669  9.06100216
   7.37174730  6.43268483  8.56252850
   6.32512957  4.90576793  8.70520175
   4.21108886  8.61761208  9.12011233
   7.24777161  8.75058255  8.57103318
   6.05312626 10.14945488  8.79043605
   5.58903479  6.31166194  5.42550605
   7.44471371  6.18248596  5.54689972
   5.73556681  8.77030489  5.49278118
   8.86780723  9.44526523  5.75987465
 


--------------------------------------------------------------------------------------------------------


 use serial FFT for orbitals x direction half grid
 k-point   1 :   0.0000 0.0000 0.0000  plane waves:   33270

 maximum and minimum number of plane-waves per node :     33270    33270

 maximum number of plane-waves:     33270
 maximum index in each direction: 
   IXMAX=   25   IYMAX=   25   IZMAX=   25
   IXMIN=    0   IYMIN=  -25   IZMIN=  -25


 serial   3D FFT for wavefunctions
 parallel 3D FFT for charge:
    minimum data exchange during FFTs selected (reduces bandwidth)


 total amount of memory used by VASP MPI-rank0   110105. kBytes
=======================================================================

   base      :      30000. kBytes
   nonl-proj :      15437. kBytes
   fftplans  :      16001. kBytes
   grid      :      47042. kBytes
   one-center:         26. kBytes
   wavefun   :       1599. kBytes
 
     INWAV:  cpu time      0.0000: real time      0.0000
 Broyden mixing: mesh for mixing (old mesh)
   NGX = 51   NGY = 51   NGZ = 51
  (NGX  =160   NGY  =160   NGZ  =160)
  gives a total of 132651 points

 initial charge density was supplied:
 charge density of overlapping atoms calculated
 number of electron      42.0000000 magnetization 
 keeping initial charge density in first step


--------------------------------------------------------------------------------------------------------


 Maximum index for augmentation-charges          173 (set IRDMAX)


--------------------------------------------------------------------------------------------------------


 First call to EWALD:  gamma=   0.115
 Maximum number of real-space cells 3x 3x 3
 Maximum number of reciprocal cells 3x 3x 3

    FEWALD:  cpu time      0.0008: real time      0.0008


--------------------------------------- Iteration      1(   1)  ---------------------------------------


    POTLOK:  cpu time      0.2570: real time      0.2572
    SETDIJ:  cpu time      0.0013: real time      0.0013
     EDDAV:  cpu time      0.5102: real time      0.5106
       DOS:  cpu time      0.0002: real time      0.0001
    --------------------------------------------
      LOOP:  cpu time      0.7687: real time      0.7694

 eigenvalue-minimisations  :    80
 total energy-change (2. order) : 0.2820743E+03  (-0.1057972E+04)
 number of electron      42.0000000 magnetization 
 augmentation part       42.0000000 magnetization 

 Free energy of the ion-electron system (eV)
  ---------------------------------------------------
  alpha Z        PSCENC =         2.15216506
  Ewald energy   TEWEN  =      2077.73031746
  -Hartree energ DENC   =     -3024.14396750
  -exchange      EXHF   =         0.00000000
  -V(xc)+E(xc)   XCENC  =       129.03160508
  PAW double counting   =       983.79330320     -989.05002801
  entropy T*S    EENTRO =        -0.02801820
  eigenvalues    EBANDS =      -304.08436414
  atomic energy  EATOM  =      1406.67326350
  Solvation  Ediel_sol  =         0.00000000
  ---------------------------------------------------
  free energy    TOTEN  =       282.07427645 eV

  energy without entropy =      282.10229465  energy(sigma->0) =      282.08828555


--------------------------------------------------------------------------------------------------------




--------------------------------------- Iteration      1(   2)  ---------------------------------------


     EDDAV:  cpu time      0.4874: real time      0.4888
       DOS:  cpu time      0.0001: real time      0.0001
    --------------------------------------------
      LOOP:  cpu time      0.4875: real time      0.4889

 eigenvalue-minimisations  :   100
 total energy-change (2. order) :-0.2481157E+03  (-0.2329269E+03)
 number of electron      42.0000000 magnetization 
 augmentation part       42.0000000 magnetization 

 Free energy of the ion-electron system (eV)
  ---------------------------------------------------
  alpha Z        PSCENC =         2.15216506
  Ewald energy   TEWEN  =      2077.73031746
  -Hartree energ DENC   =     -3024.14396750
  -exchange      EXHF   =         0.00000000
  -V(xc)+E(xc)   XCENC  =       129.03160508
  PAW double counting   =       983.79330320     -989.05002801
  entropy T*S    EENTRO =        -0.00000000
  eigenvalues    EBANDS =      -552.22804454
  atomic energy  EATOM  =      1406.67326350
  Solvation  Ediel_sol  =         0.00000000
  ---------------------------------------------------
  free energy    TOTEN  =        33.95861425 eV

  energy without entropy =       33.95861425  energy(sigma->0) =       33.95861425


--------------------------------------------------------------------------------------------------------




--------------------------------------- Iteration      1(   3)  ---------------------------------------


     EDDAV:  cpu time      0.4101: real time      0.4106
       DOS:  cpu time      0.0001: real time      0.0001
    --------------------------------------------
      LOOP:  cpu time      0.4102: real time      0.4107

 eigenvalue-minimisations  :    80
 total energy-change (2. order) :-0.1345820E+03  (-0.1342321E+03)
 number of electron      42.0000000 magnetization 
 augmentation part       42.0000000 magnetization 

 Free energy of the ion-electron system (eV)
  ---------------------------------------------------
  alpha Z        PSCENC =         2.15216506
  Ewald energy   TEWEN  =      2077.73031746
  -Hartree energ DENC   =     -3024.14396750
  -exchange      EXHF   =         0.00000000
  -V(xc)+E(xc)   XCENC  =       129.03160508
  PAW double counting   =       983.79330320     -989.05002801
  entropy T*S    EENTRO =        -0.00000000
  eigenvalues    EBANDS =      -686.81003485
  atomic energy  EATOM  =      1406.67326350
  Solvation  Ediel_sol  =         0.00000000
  ---------------------------------------------------
  free energy    TOTEN  =      -100.62337606 eV

  energy without entropy =     -100.62337606  energy(sigma->0) =     -100.62337606


--------------------------------------------------------------------------------------------------------




--------------------------------------- Iteration      1(   4)  ---------------------------------------


     EDDAV:  cpu time      0.3667: real time      0.3672
       DOS:  cpu time      0.0001: real time      0.0001
    --------------------------------------------
      LOOP:  cpu time      0.3668: real time      0.3672

 eigenvalue-minimisations  :    70
 total energy-change (2. order) :-0.1210999E+02  (-0.1206319E+02)
 number of electron      42.0000000 magnetization 
 augmentation part       42.0000000 magnetization 

 Free energy of the ion-electron system (eV)
  ---------------------------------------------------
  alpha Z        PSCENC =         2.15216506
  Ewald energy   TEWEN  =      2077.73031746
  -Hartree energ DENC   =     -3024.14396750
  -exchange      EXHF   =         0.00000000
  -V(xc)+E(xc)   XCENC  =       129.03160508
  PAW double counting   =       983.79330320     -989.05002801
  entropy T*S    EENTRO =        -0.00000000
  eigenvalues    EBANDS =      -698.92002409
  atomic energy  EATOM  =      1406.67326350
  Solvation  Ediel_sol  =         0.00000000
  ---------------------------------------------------
  free energy    TOTEN  =      -112.73336530 eV

  energy without entropy =     -112.73336530  energy(sigma->0) =     -112.73336530


--------------------------------------------------------------------------------------------------------




--------------------------------------- Iteration      1(   5)  ---------------------------------------


     EDDAV:  cpu time      0.4082: real time      0.4083
       DOS:  cpu time      0.0001: real time      0.0001
    CHARGE:  cpu time      0.0484: real time      0.0484
    MIXING:  cpu time      0.0089: real time      0.0089
    --------------------------------------------
      LOOP:  cpu time      0.4656: real time      0.4657

 eigenvalue-minimisations  :    80
 total energy-change (2. order) :-0.1742493E+00  (-0.1719478E+00)
 number of electron      42.0000027 magnetization 
 augmentation part        1.1931473 magnetization 

 Broyden mixing:
  rms(total) = 0.17309E+01    rms(broyden)= 0.17303E+01
  rms(prec ) = 0.19942E+01
  weight for this iteration     100.00

 Free energy of the ion-electron system (eV)
  ---------------------------------------------------
  alpha Z        PSCENC =         2.15216506
  Ewald energy   TEWEN  =      2077.73031746
  -Hartree energ DENC   =     -3024.14396750
  -exchange      EXHF   =         0.00000000
  -V(xc)+E(xc)   XCENC  =       129.03160508
  PAW double counting   =       983.79330320     -989.05002801
  entropy T*S    EENTRO =        -0.00000000
  eigenvalues    EBANDS =      -699.09427344
  atomic energy  EATOM  =      1406.67326350
  Solvation  Ediel_sol  =         0.00000000
  ---------------------------------------------------
  free energy    TOTEN  =      -112.90761465 eV

  energy without entropy =     -112.90761465  energy(sigma->0) =     -112.90761465


--------------------------------------------------------------------------------------------------------




--------------------------------------- Iteration      1(   6)  ---------------------------------------


    POTLOK:  cpu time      0.2246: real time      0.2247
    SETDIJ:  cpu time      0.0014: real time      0.0014
    EDDIAG:  cpu time      0.0644: real time      0.0644
  RMM-DIIS:  cpu time      0.4245: real time      0.4248
    ORTHCH:  cpu time      0.0034: real time      0.0034
       DOS:  cpu time      0.0001: real time      0.0001
    CHARGE:  cpu time      0.0474: real time      0.0474
    MIXING:  cpu time      0.0097: real time      0.0097
    --------------------------------------------
      LOOP:  cpu time      0.7755: real time      0.7760

 eigenvalue-minimisations  :    70
 total energy-change (2. order) : 0.8943347E+01  (-0.1311881E+01)
 number of electron      42.0000023 magnetization 
 augmentation part        1.1005719 magnetization 

 Broyden mixing:
  rms(total) = 0.92990E+00    rms(broyden)= 0.92980E+00
  rms(prec ) = 0.10501E+01
  weight for this iteration     100.00

 eigenvalues of (default mixing * dielectric matrix)
  average eigenvalue GAMMA=   1.7076
  1.7076

 Free energy of the ion-electron system (eV)
  ---------------------------------------------------
  alpha Z        PSCENC =         2.15216506
  Ewald energy   TEWEN  =      2077.73031746
  -Hartree energ DENC   =     -3106.59092382
  -exchange      EXHF   =         0.00000000
  -V(xc)+E(xc)   XCENC  =       133.46342542
  PAW double counting   =      1771.66921685    -1777.75935793
  entropy T*S    EENTRO =        -0.00000000
  eigenvalues    EBANDS =      -611.30237447
  atomic energy  EATOM  =      1406.67326350
  Solvation  Ediel_sol  =         0.00000000
  ---------------------------------------------------
  free energy    TOTEN  =      -103.96426792 eV

  energy without entropy =     -103.96426792  energy(sigma->0) =     -103.96426792


--------------------------------------------------------------------------------------------------------




--------------------------------------- Iteration      1(   7)  ---------------------------------------


    POTLOK:  cpu time      0.2302: real time      0.2302
    SETDIJ:  cpu time      0.0016: real time      0.0016
    EDDIAG:  cpu time      0.0636: real time      0.0636
  RMM-DIIS:  cpu time      0.4436: real time      0.4437
    ORTHCH:  cpu time      0.0031: real time      0.0031
       DOS:  cpu time      0.0001: real time      0.0001
    CHARGE:  cpu time      0.0465: real time      0.0465
    MIXING:  cpu time      0.0096: real time      0.0096
    --------------------------------------------
      LOOP:  cpu time      0.7983: real time      0.7984

 eigenvalue-minimisations  :    73
 total energy-change (2. order) : 0.2040923E+01  (-0.1227067E+01)
 number of electron      42.0000023 magnetization 
 augmentation part        1.0308280 magnetization 

 Broyden mixing:
  rms(total) = 0.39108E+00    rms(broyden)= 0.39087E+00
  rms(prec ) = 0.42395E+00
  weight for this iteration     100.00

 eigenvalues of (default mixing * dielectric matrix)
  average eigenvalue GAMMA=   1.4862
  1.1856  1.7867

 Free energy of the ion-electron system (eV)
  ---------------------------------------------------
  alpha Z        PSCENC =         2.15216506
  Ewald energy   TEWEN  =      2077.73031746
  -Hartree energ DENC   =     -3180.13159917
  -exchange      EXHF   =         0.00000000
  -V(xc)+E(xc)   XCENC  =       137.55473758
  PAW double counting   =      2841.27410170    -2847.87769913
  entropy T*S    EENTRO =        -0.00000000
  eigenvalues    EBANDS =      -539.29863210
  atomic energy  EATOM  =      1406.67326350
  Solvation  Ediel_sol  =         0.00000000
  ---------------------------------------------------
  free energy    TOTEN  =      -101.92334509 eV

  energy without entropy =     -101.92334509  energy(sigma->0) =     -101.92334509


--------------------------------------------------------------------------------------------------------




--------------------------------------- Iteration      1(   8)  ---------------------------------------


    POTLOK:  cpu time      0.2309: real time      0.2309
    SETDIJ:  cpu time      0.0015: real time      0.0015
    EDDIAG:  cpu time      0.0644: real time      0.0644
  RMM-DIIS:  cpu time      0.4705: real time      0.4705
    ORTHCH:  cpu time      0.0031: real time      0.0031
       DOS:  cpu time      0.0001: real time      0.0001
    CHARGE:  cpu time      0.0497: real time      0.0497
    MIXING:  cpu time      0.0108: real time      0.0108
    --------------------------------------------
      LOOP:  cpu time      0.8311: real time      0.8311

 eigenvalue-minimisations  :    76
 total energy-change (2. order) : 0.1642361E+00  (-0.6669169E-01)
 number of electron      42.0000022 magnetization 
 augmentation part        1.0233076 magnetization 

 Broyden mixing:
  rms(total) = 0.22274E+00    rms(broyden)= 0.22271E+00
  rms(prec ) = 0.24479E+00
  weight for this iteration     100.00

 eigenvalues of (default mixing * dielectric matrix)
  average eigenvalue GAMMA=   1.7580
  2.6475  0.8563  1.7703

 Free energy of the ion-electron system (eV)
  ---------------------------------------------------
  alpha Z        PSCENC =         2.15216506
  Ewald energy   TEWEN  =      2077.73031746
  -Hartree energ DENC   =     -3185.89021706
  -exchange      EXHF   =         0.00000000
  -V(xc)+E(xc)   XCENC  =       138.01470527
  PAW double counting   =      3140.88879814    -3147.38060263
  entropy T*S    EENTRO =        -0.00000000
  eigenvalues    EBANDS =      -533.94753873
  atomic energy  EATOM  =      1406.67326350
  Solvation  Ediel_sol  =         0.00000000
  ---------------------------------------------------
  free energy    TOTEN  =      -101.75910900 eV

  energy without entropy =     -101.75910900  energy(sigma->0) =     -101.75910900


--------------------------------------------------------------------------------------------------------




--------------------------------------- Iteration      1(   9)  ---------------------------------------


    POTLOK:  cpu time      0.2414: real time      0.2415
    SETDIJ:  cpu time      0.0017: real time      0.0017
    EDDIAG:  cpu time      0.0658: real time      0.0658
  RMM-DIIS:  cpu time      0.4702: real time      0.4702
    ORTHCH:  cpu time      0.0030: real time      0.0030
       DOS:  cpu time      0.0001: real time      0.0001
    CHARGE:  cpu time      0.0466: real time      0.0466
    MIXING:  cpu time      0.0103: real time      0.0103
    --------------------------------------------
      LOOP:  cpu time      0.8391: real time      0.8392

 eigenvalue-minimisations  :    76
 total energy-change (2. order) : 0.8125451E-01  (-0.4428741E-01)
 number of electron      42.0000022 magnetization 
 augmentation part        1.0226834 magnetization 

 Broyden mixing:
  rms(total) = 0.60245E-01    rms(broyden)= 0.60231E-01
  rms(prec ) = 0.81880E-01
  weight for this iteration     100.00

 eigenvalues of (default mixing * dielectric matrix)
  average eigenvalue GAMMA=   1.4660
  2.3473  1.6192  0.9486  0.9486

 Free energy of the ion-electron system (eV)
  ---------------------------------------------------
  alpha Z        PSCENC =         2.15216506
  Ewald energy   TEWEN  =      2077.73031746
  -Hartree energ DENC   =     -3194.41492079
  -exchange      EXHF   =         0.00000000
  -V(xc)+E(xc)   XCENC  =       138.59636814
  PAW double counting   =      3540.74569315    -3547.06942697
  entropy T*S    EENTRO =        -0.00000000
  eigenvalues    EBANDS =      -526.09131406
  atomic energy  EATOM  =      1406.67326350
  Solvation  Ediel_sol  =         0.00000000
  ---------------------------------------------------
  free energy    TOTEN  =      -101.67785450 eV

  energy without entropy =     -101.67785450  energy(sigma->0) =     -101.67785450


--------------------------------------------------------------------------------------------------------




--------------------------------------- Iteration      1(  10)  ---------------------------------------


    POTLOK:  cpu time      0.2314: real time      0.2314
    SETDIJ:  cpu time      0.0017: real time      0.0017
    EDDIAG:  cpu time      0.0633: real time      0.0633
  RMM-DIIS:  cpu time      0.4907: real time      0.4908
    ORTHCH:  cpu time      0.0030: real time      0.0030
       DOS:  cpu time      0.0001: real time      0.0001
    CHARGE:  cpu time      0.0460: real time      0.0460
    MIXING:  cpu time      0.0109: real time      0.0109
    --------------------------------------------
      LOOP:  cpu time      0.8472: real time      0.8473

 eigenvalue-minimisations  :    80
 total energy-change (2. order) : 0.4481674E-02  (-0.6922355E-02)
 number of electron      42.0000022 magnetization 
 augmentation part        1.0203760 magnetization 

 Broyden mixing:
  rms(total) = 0.30160E-01    rms(broyden)= 0.30153E-01
  rms(prec ) = 0.53455E-01
  weight for this iteration     100.00

 eigenvalues of (default mixing * dielectric matrix)
  average eigenvalue GAMMA=   1.4308
  2.1048  1.6352  1.4142  0.8560  1.1436

 Free energy of the ion-electron system (eV)
  ---------------------------------------------------
  alpha Z        PSCENC =         2.15216506
  Ewald energy   TEWEN  =      2077.73031746
  -Hartree energ DENC   =     -3197.11570251
  -exchange      EXHF   =         0.00000000
  -V(xc)+E(xc)   XCENC  =       138.62802302
  PAW double counting   =      3497.58838963    -3503.94790577
  entropy T*S    EENTRO =        -0.00000000
  eigenvalues    EBANDS =      -523.38192322
  atomic energy  EATOM  =      1406.67326350
  Solvation  Ediel_sol  =         0.00000000
  ---------------------------------------------------
  free energy    TOTEN  =      -101.67337282 eV

  energy without entropy =     -101.67337282  energy(sigma->0) =     -101.67337282


--------------------------------------------------------------------------------------------------------




--------------------------------------- Iteration      1(  11)  ---------------------------------------


    POTLOK:  cpu time      0.2320: real time      0.2321
    SETDIJ:  cpu time      0.0017: real time      0.0017
    EDDIAG:  cpu time      0.0632: real time      0.0632
  RMM-DIIS:  cpu time      0.4631: real time      0.4632
    ORTHCH:  cpu time      0.0031: real time      0.0031
       DOS:  cpu time      0.0001: real time      0.0001
    CHARGE:  cpu time      0.0458: real time      0.0458
    MIXING:  cpu time      0.0113: real time      0.0113
    --------------------------------------------
      LOOP:  cpu time      0.8204: real time      0.8206

 eigenvalue-minimisations  :    76
 total energy-change (2. order) :-0.5881309E-02  (-0.8866451E-02)
 number of electron      42.0000022 magnetization 
 augmentation part        1.0185017 magnetization 

 Broyden mixing:
  rms(total) = 0.33788E-01    rms(broyden)= 0.33782E-01
  rms(prec ) = 0.45587E-01
  weight for this iteration     100.00

 eigenvalues of (default mixing * dielectric matrix)
  average eigenvalue GAMMA=   1.5038
  2.3718  2.3718  1.2641  1.2641  0.9473  0.8037

 Free energy of the ion-electron system (eV)
  ---------------------------------------------------
  alpha Z        PSCENC =         2.15216506
  Ewald energy   TEWEN  =      2077.73031746
  -Hartree energ DENC   =     -3203.99576082
  -exchange      EXHF   =         0.00000000
  -V(xc)+E(xc)   XCENC  =       138.70975143
  PAW double counting   =      3465.05724670    -3471.42599853
  entropy T*S    EENTRO =        -0.00000000
  eigenvalues    EBANDS =      -516.58023894
  atomic energy  EATOM  =      1406.67326350
  Solvation  Ediel_sol  =         0.00000000
  ---------------------------------------------------
  free energy    TOTEN  =      -101.67925413 eV

  energy without entropy =     -101.67925413  energy(sigma->0) =     -101.67925413


--------------------------------------------------------------------------------------------------------




--------------------------------------- Iteration      1(  12)  ---------------------------------------


    POTLOK:  cpu time      0.2357: real time      0.2357
    SETDIJ:  cpu time      0.0017: real time      0.0017
    EDDIAG:  cpu time      0.0646: real time      0.0646
  RMM-DIIS:  cpu time      0.4645: real time      0.4646
    ORTHCH:  cpu time      0.0029: real time      0.0029
       DOS:  cpu time      0.0002: real time      0.0002
    CHARGE:  cpu time      0.0456: real time      0.0456
    MIXING:  cpu time      0.0112: real time      0.0112
    --------------------------------------------
      LOOP:  cpu time      0.8265: real time      0.8266

 eigenvalue-minimisations  :    76
 total energy-change (2. order) : 0.1769171E-02  (-0.7957658E-03)
 number of electron      42.0000022 magnetization 
 augmentation part        1.0178098 magnetization 

 Broyden mixing:
  rms(total) = 0.24848E-01    rms(broyden)= 0.24847E-01
  rms(prec ) = 0.33927E-01
  weight for this iteration     100.00

 eigenvalues of (default mixing * dielectric matrix)
  average eigenvalue GAMMA=   1.6132
  2.6153  2.6153  1.4096  1.4096  1.4408  0.8297  0.9725

 Free energy of the ion-electron system (eV)
  ---------------------------------------------------
  alpha Z        PSCENC =         2.15216506
  Ewald energy   TEWEN  =      2077.73031746
  -Hartree energ DENC   =     -3205.89713427
  -exchange      EXHF   =         0.00000000
  -V(xc)+E(xc)   XCENC  =       138.74339469
  PAW double counting   =      3477.80758416    -3484.15956943
  entropy T*S    EENTRO =        -0.00000000
  eigenvalues    EBANDS =      -514.72750613
  atomic energy  EATOM  =      1406.67326350
  Solvation  Ediel_sol  =         0.00000000
  ---------------------------------------------------
  free energy    TOTEN  =      -101.67748496 eV

  energy without entropy =     -101.67748496  energy(sigma->0) =     -101.67748496


--------------------------------------------------------------------------------------------------------




--------------------------------------- Iteration      1(  13)  ---------------------------------------


    POTLOK:  cpu time      0.2294: real time      0.2294
    SETDIJ:  cpu time      0.0017: real time      0.0017
    EDDIAG:  cpu time      0.0638: real time      0.0639
  RMM-DIIS:  cpu time      0.4634: real time      0.4634
    ORTHCH:  cpu time      0.0033: real time      0.0033
       DOS:  cpu time      0.0001: real time      0.0001
    CHARGE:  cpu time      0.0452: real time      0.0452
    MIXING:  cpu time      0.0120: real time      0.0120
    --------------------------------------------
      LOOP:  cpu time      0.8188: real time      0.8189

 eigenvalue-minimisations  :    76
 total energy-change (2. order) :-0.6101771E-02  (-0.1360402E-02)
 number of electron      42.0000022 magnetization 
 augmentation part        1.0172482 magnetization 

 Broyden mixing:
  rms(total) = 0.61636E-02    rms(broyden)= 0.61552E-02
  rms(prec ) = 0.11500E-01
  weight for this iteration     100.00

 eigenvalues of (default mixing * dielectric matrix)
  average eigenvalue GAMMA=   1.7114
  3.9744  2.5381  1.7567  1.3440  1.3440  1.0006  0.8669  0.8669

 Free energy of the ion-electron system (eV)
  ---------------------------------------------------
  alpha Z        PSCENC =         2.15216506
  Ewald energy   TEWEN  =      2077.73031746
  -Hartree energ DENC   =     -3208.67092224
  -exchange      EXHF   =         0.00000000
  -V(xc)+E(xc)   XCENC  =       138.77108916
  PAW double counting   =      3471.01824003    -3477.35873129
  entropy T*S    EENTRO =        -0.00000000
  eigenvalues    EBANDS =      -511.99900842
  atomic energy  EATOM  =      1406.67326350
  Solvation  Ediel_sol  =         0.00000000
  ---------------------------------------------------
  free energy    TOTEN  =      -101.68358673 eV

  energy without entropy =     -101.68358673  energy(sigma->0) =     -101.68358673


--------------------------------------------------------------------------------------------------------




--------------------------------------- Iteration      1(  14)  ---------------------------------------


    POTLOK:  cpu time      0.2323: real time      0.2324
    SETDIJ:  cpu time      0.0017: real time      0.0017
    EDDIAG:  cpu time      0.0638: real time      0.0638
  RMM-DIIS:  cpu time      0.4897: real time      0.4898
    ORTHCH:  cpu time      0.0031: real time      0.0031
       DOS:  cpu time      0.0002: real time      0.0002
    CHARGE:  cpu time      0.0456: real time      0.0456
    MIXING:  cpu time      0.0125: real time      0.0125
    --------------------------------------------
      LOOP:  cpu time      0.8488: real time      0.8489

 eigenvalue-minimisations  :    79
 total energy-change (2. order) :-0.4413136E-02  (-0.4191137E-03)
 number of electron      42.0000022 magnetization 
 augmentation part        1.0168983 magnetization 

 Broyden mixing:
  rms(total) = 0.79291E-02    rms(broyden)= 0.79267E-02
  rms(prec ) = 0.11109E-01
  weight for this iteration     100.00

 eigenvalues of (default mixing * dielectric matrix)
  average eigenvalue GAMMA=   1.7352
  3.9363  2.6477  1.8654  1.8654  1.2856  1.2856  0.9563  0.9563  0.8178

 Free energy of the ion-electron system (eV)
  ---------------------------------------------------
  alpha Z        PSCENC =         2.15216506
  Ewald energy   TEWEN  =      2077.73031746
  -Hartree energ DENC   =     -3209.79279609
  -exchange      EXHF   =         0.00000000
  -V(xc)+E(xc)   XCENC  =       138.79028794
  PAW double counting   =      3473.80714122    -3480.14757681
  entropy T*S    EENTRO =        -0.00000000
  eigenvalues    EBANDS =      -510.90080215
  atomic energy  EATOM  =      1406.67326350
  Solvation  Ediel_sol  =         0.00000000
  ---------------------------------------------------
  free energy    TOTEN  =      -101.68799987 eV

  energy without entropy =     -101.68799987  energy(sigma->0) =     -101.68799987


--------------------------------------------------------------------------------------------------------




--------------------------------------- Iteration      1(  15)  ---------------------------------------


    POTLOK:  cpu time      0.2294: real time      0.2294
    SETDIJ:  cpu time      0.0017: real time      0.0017
    EDDIAG:  cpu time      0.0647: real time      0.0647
  RMM-DIIS:  cpu time      0.4745: real time      0.4745
    ORTHCH:  cpu time      0.0033: real time      0.0033
       DOS:  cpu time      0.0001: real time      0.0001
    CHARGE:  cpu time      0.0499: real time      0.0500
    MIXING:  cpu time      0.0133: real time      0.0133
    --------------------------------------------
      LOOP:  cpu time      0.8369: real time      0.8371

 eigenvalue-minimisations  :    73
 total energy-change (2. order) :-0.9790431E-02  (-0.1828582E-03)
 number of electron      42.0000022 magnetization 
 augmentation part        1.0170490 magnetization 

 Broyden mixing:
  rms(total) = 0.40747E-02    rms(broyden)= 0.40738E-02
  rms(prec ) = 0.58401E-02
  weight for this iteration     100.00

 eigenvalues of (default mixing * dielectric matrix)
  average eigenvalue GAMMA=   1.9172
  6.0558  2.7211  2.2657  1.5977  1.3779  1.3779  1.1605  0.8965  0.8965  0.8228

 Free energy of the ion-electron system (eV)
  ---------------------------------------------------
  alpha Z        PSCENC =         2.15216506
  Ewald energy   TEWEN  =      2077.73031746
  -Hartree energ DENC   =     -3210.23205042
  -exchange      EXHF   =         0.00000000
  -V(xc)+E(xc)   XCENC  =       138.77278719
  PAW double counting   =      3470.85586046    -3477.19832103
  entropy T*S    EENTRO =        -0.00000000
  eigenvalues    EBANDS =      -510.45181252
  atomic energy  EATOM  =      1406.67326350
  Solvation  Ediel_sol  =         0.00000000
  ---------------------------------------------------
  free energy    TOTEN  =      -101.69779030 eV

  energy without entropy =     -101.69779030  energy(sigma->0) =     -101.69779030


--------------------------------------------------------------------------------------------------------




--------------------------------------- Iteration      1(  16)  ---------------------------------------


    POTLOK:  cpu time      0.2341: real time      0.2341
    SETDIJ:  cpu time      0.0017: real time      0.0017
    EDDIAG:  cpu time      0.0650: real time      0.0650
  RMM-DIIS:  cpu time      0.4607: real time      0.4608
    ORTHCH:  cpu time      0.0030: real time      0.0030
       DOS:  cpu time      0.0002: real time      0.0002
    CHARGE:  cpu time      0.0479: real time      0.0479
    MIXING:  cpu time      0.0139: real time      0.0139
    --------------------------------------------
      LOOP:  cpu time      0.8266: real time      0.8266

 eigenvalue-minimisations  :    72
 total energy-change (2. order) :-0.2619144E-02  (-0.9679923E-04)
 number of electron      42.0000022 magnetization 
 augmentation part        1.0169231 magnetization 

 Broyden mixing:
  rms(total) = 0.33975E-02    rms(broyden)= 0.33971E-02
  rms(prec ) = 0.44743E-02
  weight for this iteration     100.00

 eigenvalues of (default mixing * dielectric matrix)
  average eigenvalue GAMMA=   1.9770
  6.5171  2.7737  2.3508  1.4251  1.4251  1.5894  1.4808  1.4808  0.9396  0.9396
  0.8256

 Free energy of the ion-electron system (eV)
  ---------------------------------------------------
  alpha Z        PSCENC =         2.15216506
  Ewald energy   TEWEN  =      2077.73031746
  -Hartree energ DENC   =     -3210.73430466
  -exchange      EXHF   =         0.00000000
  -V(xc)+E(xc)   XCENC  =       138.77787459
  PAW double counting   =      3468.88298943    -3475.22895776
  entropy T*S    EENTRO =        -0.00000000
  eigenvalues    EBANDS =      -509.95375707
  atomic energy  EATOM  =      1406.67326350
  Solvation  Ediel_sol  =         0.00000000
  ---------------------------------------------------
  free energy    TOTEN  =      -101.70040944 eV

  energy without entropy =     -101.70040944  energy(sigma->0) =     -101.70040944


--------------------------------------------------------------------------------------------------------




--------------------------------------- Iteration      1(  17)  ---------------------------------------


    POTLOK:  cpu time      0.2321: real time      0.2321
    SETDIJ:  cpu time      0.0017: real time      0.0017
    EDDIAG:  cpu time      0.0643: real time      0.0643
  RMM-DIIS:  cpu time      0.4562: real time      0.4563
    ORTHCH:  cpu time      0.0030: real time      0.0030
       DOS:  cpu time      0.0002: real time      0.0002
    CHARGE:  cpu time      0.0459: real time      0.0459
    MIXING:  cpu time      0.0142: real time      0.0142
    --------------------------------------------
      LOOP:  cpu time      0.8176: real time      0.8176

 eigenvalue-minimisations  :    73
 total energy-change (2. order) :-0.3304680E-02  (-0.8187214E-04)
 number of electron      42.0000022 magnetization 
 augmentation part        1.0167465 magnetization 

 Broyden mixing:
  rms(total) = 0.19887E-02    rms(broyden)= 0.19881E-02
  rms(prec ) = 0.25428E-02
  weight for this iteration     100.00

 eigenvalues of (default mixing * dielectric matrix)
  average eigenvalue GAMMA=   2.0384
  7.2315  3.6177  2.5084  1.9768  1.4073  1.4073  1.3669  1.3669  0.9167  0.9167
  0.8308  0.9135

 Free energy of the ion-electron system (eV)
  ---------------------------------------------------
  alpha Z        PSCENC =         2.15216506
  Ewald energy   TEWEN  =      2077.73031746
  -Hartree energ DENC   =     -3210.76248772
  -exchange      EXHF   =         0.00000000
  -V(xc)+E(xc)   XCENC  =       138.77257370
  PAW double counting   =      3471.34710950    -3477.69193581
  entropy T*S    EENTRO =        -0.00000000
  eigenvalues    EBANDS =      -509.92471981
  atomic energy  EATOM  =      1406.67326350
  Solvation  Ediel_sol  =         0.00000000
  ---------------------------------------------------
  free energy    TOTEN  =      -101.70371412 eV

  energy without entropy =     -101.70371412  energy(sigma->0) =     -101.70371412


--------------------------------------------------------------------------------------------------------




--------------------------------------- Iteration      1(  18)  ---------------------------------------


    POTLOK:  cpu time      0.2276: real time      0.2277
    SETDIJ:  cpu time      0.0017: real time      0.0017
    EDDIAG:  cpu time      0.0644: real time      0.0644
  RMM-DIIS:  cpu time      0.3871: real time      0.3871
    ORTHCH:  cpu time      0.0031: real time      0.0031
       DOS:  cpu time      0.0001: real time      0.0001
    CHARGE:  cpu time      0.0471: real time      0.0471
    MIXING:  cpu time      0.0150: real time      0.0150
    --------------------------------------------
      LOOP:  cpu time      0.7461: real time      0.7463

 eigenvalue-minimisations  :    59
 total energy-change (2. order) :-0.6664991E-03  (-0.1981560E-04)
 number of electron      42.0000022 magnetization 
 augmentation part        1.0167429 magnetization 

 Broyden mixing:
  rms(total) = 0.13609E-02    rms(broyden)= 0.13608E-02
  rms(prec ) = 0.17571E-02
  weight for this iteration     100.00

 eigenvalues of (default mixing * dielectric matrix)
  average eigenvalue GAMMA=   2.0787
  7.7483  3.8776  2.3457  1.9551  1.3714  1.3714  1.7187  1.4421  1.4421  1.0501
  0.8241  0.9383  0.9383

 Free energy of the ion-electron system (eV)
  ---------------------------------------------------
  alpha Z        PSCENC =         2.15216506
  Ewald energy   TEWEN  =      2077.73031746
  -Hartree energ DENC   =     -3210.72666039
  -exchange      EXHF   =         0.00000000
  -V(xc)+E(xc)   XCENC  =       138.76854475
  PAW double counting   =      3471.61453312    -3477.95875480
  entropy T*S    EENTRO =        -0.00000000
  eigenvalues    EBANDS =      -509.95778931
  atomic energy  EATOM  =      1406.67326350
  Solvation  Ediel_sol  =         0.00000000
  ---------------------------------------------------
  free energy    TOTEN  =      -101.70438062 eV

  energy without entropy =     -101.70438062  energy(sigma->0) =     -101.70438062


--------------------------------------------------------------------------------------------------------




--------------------------------------- Iteration      1(  19)  ---------------------------------------


    POTLOK:  cpu time      0.2304: real time      0.2305
    SETDIJ:  cpu time      0.0017: real time      0.0017
    EDDIAG:  cpu time      0.0641: real time      0.0641
  RMM-DIIS:  cpu time      0.3750: real time      0.3750
    ORTHCH:  cpu time      0.0030: real time      0.0030
       DOS:  cpu time      0.0002: real time      0.0001
    CHARGE:  cpu time      0.0459: real time      0.0459
    MIXING:  cpu time      0.0154: real time      0.0154
    --------------------------------------------
      LOOP:  cpu time      0.7356: real time      0.7357

 eigenvalue-minimisations  :    57
 total energy-change (2. order) :-0.6187001E-03  (-0.1134798E-04)
 number of electron      42.0000022 magnetization 
 augmentation part        1.0167553 magnetization 

 Broyden mixing:
  rms(total) = 0.41292E-03    rms(broyden)= 0.41259E-03
  rms(prec ) = 0.68017E-03
  weight for this iteration     100.00

 eigenvalues of (default mixing * dielectric matrix)
  average eigenvalue GAMMA=   2.1515
  8.5585  4.7194  2.4632  2.4632  1.8353  1.3522  1.3522  1.3716  1.3716  0.9995
  0.9995  0.8255  0.9044  0.9044

 Free energy of the ion-electron system (eV)
  ---------------------------------------------------
  alpha Z        PSCENC =         2.15216506
  Ewald energy   TEWEN  =      2077.73031746
  -Hartree energ DENC   =     -3210.67550725
  -exchange      EXHF   =         0.00000000
  -V(xc)+E(xc)   XCENC  =       138.76430715
  PAW double counting   =      3470.66516824    -3477.00947481
  entropy T*S    EENTRO =        -0.00000000
  eigenvalues    EBANDS =      -510.00523866
  atomic energy  EATOM  =      1406.67326350
  Solvation  Ediel_sol  =         0.00000000
  ---------------------------------------------------
  free energy    TOTEN  =      -101.70499932 eV

  energy without entropy =     -101.70499932  energy(sigma->0) =     -101.70499932


--------------------------------------------------------------------------------------------------------




--------------------------------------- Iteration      1(  20)  ---------------------------------------


    POTLOK:  cpu time      0.2270: real time      0.2270
    SETDIJ:  cpu time      0.0016: real time      0.0016
    EDDIAG:  cpu time      0.0650: real time      0.0650
  RMM-DIIS:  cpu time      0.3518: real time      0.3518
    ORTHCH:  cpu time      0.0030: real time      0.0030
       DOS:  cpu time      0.0001: real time      0.0001
    CHARGE:  cpu time      0.0467: real time      0.0467
    MIXING:  cpu time      0.0162: real time      0.0162
    --------------------------------------------
      LOOP:  cpu time      0.7115: real time      0.7115

 eigenvalue-minimisations  :    48
 total energy-change (2. order) :-0.1656448E-03  (-0.3254832E-05)
 number of electron      42.0000022 magnetization 
 augmentation part        1.0167319 magnetization 

 Broyden mixing:
  rms(total) = 0.30491E-03    rms(broyden)= 0.30484E-03
  rms(prec ) = 0.49291E-03
  weight for this iteration     100.00

 eigenvalues of (default mixing * dielectric matrix)
  average eigenvalue GAMMA=   2.1623
  8.6306  5.0204  2.5305  2.5305  1.7082  1.7082  1.3673  1.3673  1.4050  1.4050
  1.0589  1.0589  0.8235  0.9099  0.9099

 Free energy of the ion-electron system (eV)
  ---------------------------------------------------
  alpha Z        PSCENC =         2.15216506
  Ewald energy   TEWEN  =      2077.73031746
  -Hartree energ DENC   =     -3210.69929523
  -exchange      EXHF   =         0.00000000
  -V(xc)+E(xc)   XCENC  =       138.76475035
  PAW double counting   =      3470.92464220    -3477.26885847
  entropy T*S    EENTRO =        -0.00000000
  eigenvalues    EBANDS =      -509.98214983
  atomic energy  EATOM  =      1406.67326350
  Solvation  Ediel_sol  =         0.00000000
  ---------------------------------------------------
  free energy    TOTEN  =      -101.70516497 eV

  energy without entropy =     -101.70516497  energy(sigma->0) =     -101.70516497


--------------------------------------------------------------------------------------------------------




--------------------------------------- Iteration      1(  21)  ---------------------------------------


    POTLOK:  cpu time      0.2287: real time      0.2287
    SETDIJ:  cpu time      0.0017: real time      0.0017
    EDDIAG:  cpu time      0.0656: real time      0.0656
  RMM-DIIS:  cpu time      0.3317: real time      0.3317
    ORTHCH:  cpu time      0.0043: real time      0.0043
       DOS:  cpu time      0.0001: real time      0.0001
    CHARGE:  cpu time      0.0458: real time      0.0458
    MIXING:  cpu time      0.0169: real time      0.0169
    --------------------------------------------
      LOOP:  cpu time      0.6948: real time      0.6949

 eigenvalue-minimisations  :    45
 total energy-change (2. order) :-0.1584455E-03  (-0.1543981E-05)
 number of electron      42.0000022 magnetization 
 augmentation part        1.0167109 magnetization 

 Broyden mixing:
  rms(total) = 0.16638E-03    rms(broyden)= 0.16622E-03
  rms(prec ) = 0.25995E-03
  weight for this iteration     100.00

 eigenvalues of (default mixing * dielectric matrix)
  average eigenvalue GAMMA=   2.2297
  8.9035  5.6064  3.4245  2.4028  2.4028  1.8321  1.3516  1.3516  1.3799  1.3799
  1.0329  1.0329  0.8247  0.9035  0.9226  0.9226

 Free energy of the ion-electron system (eV)
  ---------------------------------------------------
  alpha Z        PSCENC =         2.15216506
  Ewald energy   TEWEN  =      2077.73031746
  -Hartree energ DENC   =     -3210.69398090
  -exchange      EXHF   =         0.00000000
  -V(xc)+E(xc)   XCENC  =       138.76487967
  PAW double counting   =      3470.92752511    -3477.27168082
  entropy T*S    EENTRO =        -0.00000000
  eigenvalues    EBANDS =      -509.98781248
  atomic energy  EATOM  =      1406.67326350
  Solvation  Ediel_sol  =         0.00000000
  ---------------------------------------------------
  free energy    TOTEN  =      -101.70532341 eV

  energy without entropy =     -101.70532341  energy(sigma->0) =     -101.70532341


--------------------------------------------------------------------------------------------------------




--------------------------------------- Iteration      1(  22)  ---------------------------------------


    POTLOK:  cpu time      0.2420: real time      0.2422
    SETDIJ:  cpu time      0.0017: real time      0.0017
    EDDIAG:  cpu time      0.0641: real time      0.0641
  RMM-DIIS:  cpu time      0.3133: real time      0.3134
    ORTHCH:  cpu time      0.0134: real time      0.0134
       DOS:  cpu time      0.0001: real time      0.0001
    --------------------------------------------
      LOOP:  cpu time      0.6346: real time      0.6349

 eigenvalue-minimisations  :    35
 total energy-change (2. order) :-0.4499416E-04  (-0.3910289E-06)
 number of electron      42.0000022 magnetization 
 augmentation part        1.0167109 magnetization 

 Free energy of the ion-electron system (eV)
  ---------------------------------------------------
  alpha Z        PSCENC =         2.15216506
  Ewald energy   TEWEN  =      2077.73031746
  -Hartree energ DENC   =     -3210.68877450
  -exchange      EXHF   =         0.00000000
  -V(xc)+E(xc)   XCENC  =       138.76463984
  PAW double counting   =      3470.82918881    -3477.17331980
  entropy T*S    EENTRO =        -0.00000000
  eigenvalues    EBANDS =      -509.99284877
  atomic energy  EATOM  =      1406.67326350
  Solvation  Ediel_sol  =         0.00000000
  ---------------------------------------------------
  free energy    TOTEN  =      -101.70536841 eV

  energy without entropy =     -101.70536841  energy(sigma->0) =     -101.70536841


--------------------------------------------------------------------------------------------------------




 average (electrostatic) potential at core
  the test charge radii are     0.6991  0.5201  0.7089
  (the norm of the test charge is              1.0000)
       1 -58.9056       2 -58.8697       3 -58.6260       4 -58.6779       5 -59.4518
       6 -59.8831       7 -59.8867       8 -42.0314       9 -42.0811      10 -42.0843
      11 -41.9996      12 -41.9924      13 -42.0038      14 -42.6324      15 -42.6383
      16 -42.8452      17 -73.1396
 
 
 
 E-fermi :  -5.5207     XC(G=0):  -0.6762     alpha+bet : -0.2838

 Fermi energy:        -5.5207052153

 k-point     1 :       0.0000    0.0000    0.0000
  band No.  band energies     occupation 
      1     -22.4056      2.00000
      2     -20.0213      2.00000
      3     -19.9026      2.00000
      4     -17.9843      2.00000
      5     -16.0204      2.00000
      6     -15.3125      2.00000
      7     -12.9631      2.00000
      8     -12.8961      2.00000
      9     -12.0463      2.00000
     10     -11.4707      2.00000
     11     -10.7166      2.00000
     12     -10.1091      2.00000
     13      -9.7747      2.00000
     14      -9.2182      2.00000
     15      -8.6341      2.00000
     16      -8.3995      2.00000
     17      -8.3578      2.00000
     18      -8.0625      2.00000
     19      -8.0103      2.00000
     20      -6.8803      2.00000
     21      -5.8105      2.00000
     22      -2.3789      0.00000
     23      -2.2005      0.00000
     24      -0.6966      0.00000
     25      -0.2461      0.00000
     26      -0.0727      0.00000
     27       0.0675      0.00000
     28       0.2707      0.00000
     29       0.5294      0.00000
     30       0.8019      0.00000


--------------------------------------------------------------------------------------------------------


 soft charge-density along one line, spin component           1
         0         1         2         3         4         5         6         7         8         9
 total charge-density along one line
 
 pseudopotential strength for first ion, spin component:           1
 10.260  13.645   0.001  -0.000  -0.000  -0.001   0.000  -0.000
 13.645  18.146   0.001  -0.000  -0.000  -0.002   0.000  -0.001
  0.001   0.001  -4.387  -0.001   0.003   8.582   0.001  -0.004
 -0.000  -0.000  -0.001  -4.381   0.001   0.001   8.576  -0.001
 -0.000  -0.000   0.003   0.001  -4.387  -0.004  -0.001   8.582
 -0.001  -0.002   8.582   0.001  -0.004 -18.928  -0.001   0.006
  0.000   0.000   0.001   8.576  -0.001  -0.001 -18.925   0.001
 -0.000  -0.001  -0.004  -0.001   8.582   0.006   0.001 -18.927
 total augmentation occupancy for first ion, spin component:           1
  7.846  -3.401  -0.107  -0.056   0.285  -0.012  -0.009   0.048
 -3.401   1.516   0.046   0.034  -0.170   0.004   0.005  -0.027
 -0.107   0.046   1.773   0.025  -0.103   0.165   0.004  -0.017
 -0.056   0.034   0.025   1.173  -0.113   0.004   0.075  -0.016
  0.285  -0.170  -0.103  -0.113   1.813  -0.016  -0.016   0.162
 -0.012   0.004   0.165   0.004  -0.016   0.016   0.001  -0.002
 -0.009   0.005   0.004   0.075  -0.016   0.001   0.005  -0.002
  0.048  -0.027  -0.017  -0.016   0.162  -0.002  -0.002   0.015


------------------------ aborting loop because EDIFF is reached ----------------------------------------


    CHARGE:  cpu time      0.0620: real time      0.0780
    FORLOC:  cpu time      0.0307: real time      0.0347
    FORNL :  cpu time      0.0518: real time      0.0599
    STRESS:  cpu time      0.5240: real time      0.6162
    FORCOR:  cpu time      0.3073: real time      0.3714
    FORHAR:  cpu time      0.1138: real time      0.1480
    MIXING:  cpu time      0.0831: real time      0.0951
    OFIELD:  cpu time      0.0000: real time      0.0000

 ---------------------------------------------------------------------------------------------

         DFTD3 V3.0 Rev 1        
 IVDW         = 11
 DF pbe       
 parameters
 VDW_S6       =    1.0000
 VDW_S8       =    0.7220
 VDW_SR       =    1.2170
 rs18     =    1.0000
 alpha6   =   14.0000
 alpha8   =   16.0000
 k1-k3    =   16.0000    1.3333   -4.0000
 VDW_RADIUS   =   50.2022 A
 VDW_CNRADIUS =   21.1671 A
 Edisp (eV)   -0.20039

 E6    (eV) :    -0.0994
 E8    (eV) :    -0.1010
 % E8        : 50.38
    FORVDW:  cpu time      0.0074: real time      0.0114

  FORCE on cell =-STRESS in cart. coord.  units (eV):
  Direction    XX          YY          ZZ          XY          YZ          ZX
  --------------------------------------------------------------------------------------
  Alpha Z     2.15217     2.15217     2.15217
  Ewald     766.42416   984.60967   326.69532   359.41308   -39.63875  -360.03984
  Hartree   963.19790  1184.70967  1062.77662   235.90357   -54.67870  -306.50885
  E(xc)    -150.73945  -151.12739  -154.59503     0.60315     0.10797    -0.21073
  Local   -2101.22643 -2557.76075 -1846.13822  -581.91251    96.63683   663.42639
  n-local   -62.96694   -59.68504   -55.09350    -1.56771    -0.22573     0.17780
  augment    -0.72053    -0.70212    -0.42099     0.00719    -0.00283     0.02715
  Kinetic   582.29994   596.07542   662.79454   -12.37029    -2.19500     3.03365
  Fock        0.00000     0.00000     0.00000     0.00000     0.00000     0.00000
  vdW        -0.01676    -0.02893    -0.25245    -0.01161     0.01568     0.06035
  -------------------------------------------------------------------------------------
  Total      -1.59595    -1.75729    -2.08155     0.06486     0.01948    -0.03408
  in kB      -0.69980    -0.77055    -0.91273     0.02844     0.00854    -0.01494
  external pressure =       -0.79 kB  Pullay stress =        0.00 kB


 VOLUME and BASIS-vectors are now :
 -----------------------------------------------------------------------------
  energy-cutoff  :      400.00
  volume of cell :     3653.87
      direct lattice vectors                 reciprocal lattice vectors
    15.402250290  0.000000000  0.000000000     0.064925578  0.000000000  0.000000000
     0.000000000 15.402250290  0.000000000     0.000000000  0.064925578  0.000000000
     0.000000000  0.000000000 15.402250290     0.000000000  0.000000000  0.064925578

  length of vectors
    15.402250290 15.402250290 15.402250290     0.064925578  0.064925578  0.064925578


 FORCES acting on ions
    electron-ion (+dipol)            ewald-force                    non-local-force                 convergence-correction
 -----------------------------------------------------------------------------------------------
   0.112E+03 0.677E+02 -.638E+02   -.112E+03 -.681E+02 0.640E+02   0.176E+00 0.406E+00 -.105E+00   0.520E-03 0.297E-04 -.368E-03
   0.120E+03 -.459E+02 -.688E+02   -.121E+03 0.464E+02 0.689E+02   0.202E+00 -.517E+00 -.154E+00   0.457E-03 0.477E-03 -.213E-03
   -.589E+02 -.136E+03 -.513E+02   0.596E+02 0.137E+03 0.512E+02   -.711E+00 -.549E+00 0.799E-01   0.722E-04 0.303E-03 0.655E-04
   -.835E+02 0.139E+03 -.371E+02   0.841E+02 -.140E+03 0.371E+02   -.600E+00 0.410E+00 0.417E-01   0.325E-03 0.153E-03 -.243E-03
   0.204E+02 0.145E+03 0.813E+02   -.205E+02 -.147E+03 -.813E+02   0.121E+00 0.190E+01 -.607E-02   -.229E-03 -.213E-02 0.956E-04
   0.652E+02 -.567E+02 0.820E+02   -.697E+02 0.551E+02 -.824E+02   0.447E+01 0.165E+01 0.391E+00   -.576E-03 0.202E-03 0.190E-03
   0.114E+02 -.958E+01 0.597E+02   -.133E+02 0.811E+01 -.599E+02   0.180E+01 0.140E+01 0.253E+00   0.156E-02 0.109E-02 0.418E-03
   0.668E+02 0.392E+02 -.176E+02   -.718E+02 -.419E+02 0.184E+02   0.492E+01 0.274E+01 -.798E+00   0.151E-03 0.815E-04 -.114E-03
   -.651E+02 0.343E+01 -.698E+01   0.703E+02 -.114E+01 0.623E+01   -.518E+01 -.228E+01 0.758E+00   -.112E-04 -.629E-04 0.323E-05
   -.352E+01 0.747E+02 -.735E+01   0.322E+01 -.805E+02 0.734E+01   0.303E+00 0.573E+01 0.962E-02   0.115E-03 0.192E-03 -.783E-04
   0.708E+02 -.304E+02 -.200E+02   -.760E+02 0.325E+02 0.209E+02   0.517E+01 -.219E+01 -.957E+00   0.136E-03 0.783E-04 -.500E-04
   -.618E+02 -.540E+01 -.109E+02   0.672E+02 0.375E+01 0.997E+01   -.541E+01 0.165E+01 0.963E+00   -.894E-04 0.959E-04 0.769E-04
   0.673E+01 -.740E+02 -.125E+02   -.761E+01 0.797E+02 0.127E+02   0.871E+00 -.568E+01 -.197E+00   0.408E-04 -.112E-03 -.546E-05
   0.551E+02 0.423E+02 0.223E+02   -.603E+02 -.450E+02 -.227E+02   0.518E+01 0.269E+01 0.369E+00   -.238E-04 -.202E-03 0.175E-04
   -.476E+02 0.539E+02 0.135E+02   0.524E+02 -.573E+02 -.133E+02   -.476E+01 0.337E+01 -.257E+00   0.302E-04 -.228E-03 0.441E-04
   0.598E+02 -.420E+02 0.214E+02   -.646E+02 0.453E+02 -.216E+02   0.480E+01 -.326E+01 0.189E+00   -.409E-03 0.286E-03 0.215E-04
   -.245E+03 -.152E+03 0.193E+02   0.279E+03 0.172E+03 -.156E+02   -.345E+02 -.206E+02 -.375E+01   0.549E-03 0.316E-03 0.364E-03
 -----------------------------------------------------------------------------------------------
   0.232E+02 0.131E+02 0.317E+01   0.000E+00 0.114E-12 0.622E-13   -.232E+02 -.132E+02 -.317E+01   0.262E-02 0.577E-03 0.224E-03
 
 
 POSITION                                       TOTAL-FORCE (eV/Angst)
 -----------------------------------------------------------------------------------
      5.28439      6.74515      8.90839         0.029597      0.024382     -0.003221
      5.20868      8.20689      8.93704         0.034973     -0.021221     -0.005497
      6.22146      9.07339      8.75360        -0.029871     -0.027118      0.004452
      6.38298      5.99411      8.70896        -0.028841      0.019537      0.003197
      6.55452      6.80934      5.49929         0.003228      0.034361     -0.000230
      6.63292      8.14949      5.53315         0.028454     -0.015751     -0.001630
      7.86650      8.85076      5.65054        -0.120638     -0.074749     -0.012231
      4.33285      6.22662      9.06100        -0.023185     -0.011735      0.005164
      7.37175      6.43268      8.56253         0.021540      0.012505     -0.004991
      6.32513      4.90577      8.70520        -0.001104     -0.027148     -0.000423
      4.21109      8.61761      9.12011        -0.024107      0.008386      0.007048
      7.24777      8.75058      8.57103         0.022295     -0.008076     -0.005546
      6.05313     10.14945      8.79044        -0.006645      0.028177      0.000878
      5.58903      6.31166      5.42551        -0.026530     -0.009949     -0.002261
      7.44471      6.18249      5.54690         0.022213     -0.014283      0.001613
      5.73557      8.77030      5.49278        -0.020425      0.014153      0.000270
      8.86781      9.44527      5.75987         0.119046      0.068530      0.013408
 -----------------------------------------------------------------------------------
    total drift:                               -0.000734     -0.001721      0.002134


--------------------------------------------------------------------------------------------------------



  FREE ENERGIE OF THE ION-ELECTRON SYSTEM (eV)
  ---------------------------------------------------
  free  energy   TOTEN  =      -101.90575403 eV

  energy  without entropy=     -101.90575403  energy(sigma->0) =     -101.90575403
 


--------------------------------------------------------------------------------------------------------


    POTLOK:  cpu time      0.4440: real time      0.4974


--------------------------------------------------------------------------------------------------------


 stress matrix after NEB project (eV)
     -1.59595      0.06486     -0.03408
      0.06486     -1.75729      0.01948
     -0.03408      0.01948     -2.08155
  FORCES: max atom, RMS     0.142444    0.056355
  FORCE total and by dimension    0.232357    0.120638
  Stress total and by dimension    3.159030    2.081548
     LOOP+:  cpu time     17.5778: real time     17.8749
    4ORBIT:  cpu time      0.0000: real time      0.0000

 total amount of memory used by VASP MPI-rank0   110105. kBytes
=======================================================================

   base      :      30000. kBytes
   nonl-proj :      15437. kBytes
   fftplans  :      16001. kBytes
   grid      :      47042. kBytes
   one-center:         26. kBytes
   wavefun   :       1599. kBytes
 
  
  
 General timing and accounting informations for this job:
 ========================================================
  
                  Total CPU time used (sec):       18.215
                            User time (sec):       16.986
                          System time (sec):        1.228
                         Elapsed time (sec):       18.796
  
                   Maximum memory used (kb):      327636.
                   Average memory used (kb):          N/A
  
                          Minor page faults:       268258
                          Major page faults:            9
                 Voluntary context switches:           50
