   17   17 5000    1
  0.2149333E+03  0.1540225E-08  0.1540225E-08  0.1540225E-08  0.1000000E-15
  1.000000000000000E-004
  CAR 
 unknown system                          
     42      1     30
 
  0.0000000E+00  0.0000000E+00  0.0000000E+00  0.1000000E+01
      1        -22.278990   1.000000
      2        -21.189352   1.000000
      3        -19.100349   1.000000
      4        -18.714161   1.000000
      5        -15.996821   1.000000
      6        -15.458178   1.000000
      7        -13.082586   1.000000
      8        -13.014583   1.000000
      9        -11.776870   1.000000
     10        -11.002245   1.000000
     11        -10.527672   1.000000
     12        -10.358875   1.000000
     13         -9.836430   1.000000
     14         -9.647643   1.000000
     15         -8.743327   1.000000
     16         -8.523176   1.000000
     17         -8.292562   1.000000
     18         -7.920018   1.000000
     19         -7.586279   1.000000
     20         -7.465372   1.000000
     21         -6.125699   1.000000
     22         -0.930290   0.000000
     23         -0.594370   0.000000
     24         -0.152125   0.000000
     25         -0.076632   0.000000
     26         -0.032913   0.000000
     27          0.029665   0.000000
     28          0.168838   0.000000
     29          0.378908   0.000000
     30          0.486295   0.000000
