       N       E                     dE             d eps       ncg     rms          rms(c)
DAV:   1     0.340121527354E+03    0.34012E+03   -0.10147E+04    76   0.668E+02
DAV:   2     0.785568767434E+02   -0.26156E+03   -0.24666E+03    88   0.135E+02
DAV:   3    -0.912255177947E+02   -0.16978E+03   -0.16923E+03    80   0.108E+02
DAV:   4    -0.113969087380E+03   -0.22744E+02   -0.22713E+02    88   0.575E+01
DAV:   5    -0.114295265594E+03   -0.32618E+00   -0.32475E+00    80   0.854E+00    0.170E+01
RMM:   6    -0.105856692612E+03    0.84386E+01   -0.11557E+01    60   0.138E+01    0.923E+00
RMM:   7    -0.103775067664E+03    0.20816E+01   -0.10741E+01    60   0.130E+01    0.393E+00
RMM:   8    -0.103601077493E+03    0.17399E+00   -0.68718E-01    60   0.433E+00    0.235E+00
RMM:   9    -0.103500760330E+03    0.10032E+00   -0.45603E-01    60   0.295E+00    0.677E-01
RMM:  10    -0.103497497360E+03    0.32630E-02   -0.73855E-02    63   0.123E+00    0.331E-01
RMM:  11    -0.103508508491E+03   -0.11011E-01   -0.12853E-01    60   0.132E+00    0.429E-01
RMM:  12    -0.103503783696E+03    0.47248E-02   -0.10889E-02    60   0.561E-01    0.289E-01
RMM:  13    -0.103508648437E+03   -0.48647E-02   -0.27712E-02    60   0.629E-01    0.105E-01
RMM:  14    -0.103512404286E+03   -0.37558E-02   -0.55309E-03    62   0.333E-01    0.946E-02
RMM:  15    -0.103522628188E+03   -0.10224E-01   -0.26256E-03    60   0.195E-01    0.347E-02
RMM:  16    -0.103525729896E+03   -0.31017E-02   -0.17553E-03    63   0.141E-01    0.386E-02
RMM:  17    -0.103529474189E+03   -0.37443E-02   -0.10241E-03    60   0.117E-01    0.237E-02
RMM:  18    -0.103530373066E+03   -0.89888E-03   -0.29362E-04    59   0.564E-02    0.217E-02
RMM:  19    -0.103530984771E+03   -0.61170E-03   -0.22809E-04    59   0.546E-02    0.132E-02
RMM:  20    -0.103531189920E+03   -0.20515E-03   -0.42061E-05    48   0.253E-02    0.804E-03
RMM:  21    -0.103531321586E+03   -0.13167E-03   -0.15582E-05    41   0.146E-02    0.293E-03
RMM:  22    -0.103531362483E+03   -0.40897E-04   -0.62877E-06    39   0.104E-02    0.179E-03
RMM:  23    -0.103531391482E+03   -0.28999E-04   -0.21259E-06    36   0.658E-03    0.117E-03
RMM:  24    -0.103531401124E+03   -0.96419E-05   -0.51009E-07    27   0.385E-03
   1 F= -.10372967E+03 E0= -.10372967E+03  d E =-.103730E+03
       N       E                     dE             d eps       ncg     rms          rms(c)
DAV:   1    -0.103544749756E+03   -0.13358E-01   -0.29702E-01    82   0.326E+00    0.133E-01
RMM:   2    -0.103544867716E+03   -0.11796E-03   -0.47007E-03    60   0.392E-01    0.840E-02
RMM:   3    -0.103544822497E+03    0.45220E-04   -0.11737E-03    60   0.193E-01    0.234E-02
RMM:   4    -0.103544845236E+03   -0.22739E-04   -0.21386E-04    62   0.887E-02    0.160E-02
RMM:   5    -0.103544852741E+03   -0.75052E-05   -0.62273E-05    51   0.435E-02
   2 F= -.10374315E+03 E0= -.10374315E+03  d E =-.134713E-01
       N       E                     dE             d eps       ncg     rms          rms(c)
DAV:   1    -0.103553948441E+03   -0.91032E-02   -0.22480E-01    72   0.289E+00    0.141E-01
RMM:   2    -0.103553947804E+03    0.63736E-06   -0.32577E-03    60   0.357E-01    0.796E-02
RMM:   3    -0.103553897088E+03    0.50716E-04   -0.71889E-04    60   0.155E-01    0.315E-02
RMM:   4    -0.103553920541E+03   -0.23453E-04   -0.24958E-04    62   0.835E-02    0.198E-02
RMM:   5    -0.103553923625E+03   -0.30839E-05   -0.31917E-05    45   0.324E-02
   3 F= -.10375228E+03 E0= -.10375228E+03  d E =-.913721E-02
       N       E                     dE             d eps       ncg     rms          rms(c)
DAV:   1    -0.103558055124E+03   -0.41346E-02   -0.87167E-02    66   0.176E+00    0.898E-02
RMM:   2    -0.103558046751E+03    0.83730E-05   -0.16255E-03    60   0.219E-01    0.522E-02
RMM:   3    -0.103558028563E+03    0.18188E-04   -0.33005E-04    60   0.102E-01    0.256E-02
RMM:   4    -0.103558038613E+03   -0.10049E-04   -0.12368E-04    61   0.576E-02    0.143E-02
RMM:   5    -0.103558041936E+03   -0.33234E-05   -0.13242E-05    40   0.216E-02
   4 F= -.10375640E+03 E0= -.10375640E+03  d E =-.411925E-02
       N       E                     dE             d eps       ncg     rms          rms(c)
DAV:   1    -0.103560486935E+03   -0.24483E-02   -0.32514E-02    72   0.110E+00    0.583E-02
RMM:   2    -0.103560480946E+03    0.59895E-05   -0.47827E-04    60   0.137E-01    0.321E-02
RMM:   3    -0.103560474786E+03    0.61598E-05   -0.97863E-05    60   0.582E-02
   5 F= -.10375887E+03 E0= -.10375887E+03  d E =-.246942E-02
       N       E                     dE             d eps       ncg     rms          rms(c)
DAV:   1    -0.103564020443E+03   -0.35395E-02   -0.11927E-01    60   0.207E+00    0.903E-02
RMM:   2    -0.103564072049E+03   -0.51606E-04   -0.17537E-03    60   0.249E-01    0.547E-02
RMM:   3    -0.103564079399E+03   -0.73496E-05   -0.39629E-04    60   0.115E-01    0.217E-02
RMM:   4    -0.103564091268E+03   -0.11869E-04   -0.91399E-05    60   0.554E-02    0.135E-02
RMM:   5    -0.103564094386E+03   -0.31178E-05   -0.19357E-05    41   0.259E-02
   6 F= -.10376251E+03 E0= -.10376251E+03  d E =-.363780E-02
       N       E                     dE             d eps       ncg     rms          rms(c)
DAV:   1    -0.103569357576E+03   -0.52663E-02   -0.25797E-01    60   0.306E+00    0.148E-01
RMM:   2    -0.103569393438E+03   -0.35862E-04   -0.31863E-03    60   0.348E-01    0.836E-02
RMM:   3    -0.103569406942E+03   -0.13504E-04   -0.77323E-04    60   0.156E-01    0.291E-02
RMM:   4    -0.103569433027E+03   -0.26085E-04   -0.20916E-04    67   0.758E-02    0.189E-02
RMM:   5    -0.103569437130E+03   -0.41027E-05   -0.52959E-05    57   0.363E-02
   7 F= -.10376788E+03 E0= -.10376788E+03  d E =-.537366E-02
       N       E                     dE             d eps       ncg     rms          rms(c)
DAV:   1    -0.103571059105E+03   -0.16261E-02   -0.35892E-02    60   0.114E+00    0.544E-02
RMM:   2    -0.103571069121E+03   -0.10016E-04   -0.53743E-04    60   0.134E-01    0.316E-02
RMM:   3    -0.103571072990E+03   -0.38693E-05   -0.11755E-04    60   0.619E-02    0.134E-02
RMM:   4    -0.103571077605E+03   -0.46149E-05   -0.30158E-05    46   0.306E-02
   8 F= -.10376951E+03 E0= -.10376951E+03  d E =-.162388E-02
       N       E                     dE             d eps       ncg     rms          rms(c)
DAV:   1    -0.103573119175E+03   -0.20462E-02   -0.68448E-02    60   0.159E+00    0.864E-02
RMM:   2    -0.103573115537E+03    0.36383E-05   -0.92286E-04    60   0.191E-01    0.475E-02
RMM:   3    -0.103573112452E+03    0.30849E-05   -0.17031E-04    60   0.789E-02    0.203E-02
RMM:   4    -0.103573120113E+03   -0.76605E-05   -0.65682E-05    59   0.433E-02
   9 F= -.10377156E+03 E0= -.10377156E+03  d E =-.204847E-02
       N       E                     dE             d eps       ncg     rms          rms(c)
DAV:   1    -0.103574108043E+03   -0.99559E-03   -0.27660E-02    72   0.984E-01    0.551E-02
RMM:   2    -0.103574115455E+03   -0.74122E-05   -0.56415E-04    60   0.129E-01    0.320E-02
RMM:   3    -0.103574111716E+03    0.37393E-05   -0.97601E-05    59   0.569E-02
  10 F= -.10377252E+03 E0= -.10377252E+03  d E =-.961407E-03
       N       E                     dE             d eps       ncg     rms          rms(c)
DAV:   1    -0.103575387223E+03   -0.12718E-02   -0.34834E-02    60   0.114E+00    0.675E-02
RMM:   2    -0.103575374324E+03    0.12899E-04   -0.56037E-04    60   0.147E-01    0.371E-02
RMM:   3    -0.103575370446E+03    0.38782E-05   -0.10698E-04    60   0.615E-02    0.167E-02
RMM:   4    -0.103575375496E+03   -0.50500E-05   -0.46976E-05    48   0.354E-02
  11 F= -.10377378E+03 E0= -.10377378E+03  d E =-.126157E-02
       N       E                     dE             d eps       ncg     rms          rms(c)
DAV:   1    -0.103576925984E+03   -0.15555E-02   -0.43969E-02    60   0.126E+00    0.602E-02
RMM:   2    -0.103576944063E+03   -0.18079E-04   -0.56484E-04    60   0.141E-01    0.355E-02
RMM:   3    -0.103576953455E+03   -0.93924E-05   -0.11649E-04    60   0.630E-02    0.123E-02
RMM:   4    -0.103576957899E+03   -0.44444E-05   -0.31260E-05    46   0.304E-02
  12 F= -.10377532E+03 E0= -.10377532E+03  d E =-.154065E-02
       N       E                     dE             d eps       ncg     rms          rms(c)
DAV:   1    -0.103577749354E+03   -0.79590E-03   -0.14573E-02    72   0.727E-01    0.340E-02
RMM:   2    -0.103577757584E+03   -0.82299E-05   -0.21013E-04    60   0.841E-02    0.210E-02
RMM:   3    -0.103577760505E+03   -0.29212E-05   -0.41344E-05    49   0.369E-02
  13 F= -.10377609E+03 E0= -.10377609E+03  d E =-.773000E-03
       N       E                     dE             d eps       ncg     rms          rms(c)
DAV:   1    -0.103578715001E+03   -0.95742E-03   -0.20791E-02    60   0.875E-01    0.462E-02
RMM:   2    -0.103578717917E+03   -0.29156E-05   -0.29450E-04    60   0.105E-01    0.266E-02
RMM:   3    -0.103578720285E+03   -0.23686E-05   -0.58153E-05    52   0.452E-02
  14 F= -.10377703E+03 E0= -.10377703E+03  d E =-.941112E-03
       N       E                     dE             d eps       ncg     rms          rms(c)
DAV:   1    -0.103579400650E+03   -0.68273E-03   -0.14785E-02    60   0.727E-01    0.351E-02
RMM:   2    -0.103579407979E+03   -0.73286E-05   -0.23399E-04    60   0.878E-02    0.214E-02
RMM:   3    -0.103579408729E+03   -0.75022E-06   -0.44793E-05    49   0.386E-02
  15 F= -.10377769E+03 E0= -.10377769E+03  d E =-.654680E-03
       N       E                     dE             d eps       ncg     rms          rms(c)
DAV:   1    -0.103580122782E+03   -0.71480E-03   -0.15572E-02    60   0.748E-01    0.350E-02
RMM:   2    -0.103580130099E+03   -0.73174E-05   -0.21068E-04    60   0.865E-02    0.211E-02
RMM:   3    -0.103580133306E+03   -0.32065E-05   -0.43317E-05    49   0.383E-02
  16 F= -.10377839E+03 E0= -.10377839E+03  d E =-.701845E-03
       N       E                     dE             d eps       ncg     rms          rms(c)
DAV:   1    -0.103580928413E+03   -0.79831E-03   -0.26641E-02    60   0.961E-01    0.408E-02
RMM:   2    -0.103580946207E+03   -0.17795E-04   -0.31891E-04    60   0.105E-01    0.251E-02
RMM:   3    -0.103580953085E+03   -0.68773E-05   -0.62216E-05    55   0.466E-02
  17 F= -.10377917E+03 E0= -.10377917E+03  d E =-.781817E-03
       N       E                     dE             d eps       ncg     rms          rms(c)
DAV:   1    -0.103581536623E+03   -0.59042E-03   -0.21734E-02    60   0.865E-01    0.370E-02
RMM:   2    -0.103581552937E+03   -0.16315E-04   -0.29928E-04    60   0.997E-02    0.231E-02
RMM:   3    -0.103581557103E+03   -0.41661E-05   -0.54294E-05    51   0.435E-02
  18 F= -.10377974E+03 E0= -.10377974E+03  d E =-.567404E-03
       N       E                     dE             d eps       ncg     rms          rms(c)
DAV:   1    -0.103582131235E+03   -0.57830E-03   -0.24509E-02    60   0.918E-01    0.402E-02
RMM:   2    -0.103582147001E+03   -0.15766E-04   -0.34619E-04    60   0.107E-01    0.247E-02
RMM:   3    -0.103582151232E+03   -0.42313E-05   -0.65643E-05    52   0.472E-02
  19 F= -.10378031E+03 E0= -.10378031E+03  d E =-.569000E-03
       N       E                     dE             d eps       ncg     rms          rms(c)
DAV:   1    -0.103582798891E+03   -0.65189E-03   -0.39647E-02    60   0.116E+00    0.496E-02
RMM:   2    -0.103582825692E+03   -0.26801E-04   -0.53009E-04    60   0.132E-01    0.307E-02
RMM:   3    -0.103582831550E+03   -0.58577E-05   -0.95975E-05    56   0.577E-02
  20 F= -.10378094E+03 E0= -.10378094E+03  d E =-.634017E-03
       N       E                     dE             d eps       ncg     rms          rms(c)
DAV:   1    -0.103583411826E+03   -0.58613E-03   -0.33834E-02    60   0.107E+00    0.451E-02
RMM:   2    -0.103583436338E+03   -0.24512E-04   -0.44261E-04    60   0.121E-01    0.279E-02
RMM:   3    -0.103583443957E+03   -0.76188E-05   -0.83821E-05    55   0.537E-02
  21 F= -.10378152E+03 E0= -.10378152E+03  d E =-.580234E-03
       N       E                     dE             d eps       ncg     rms          rms(c)
DAV:   1    -0.103584073371E+03   -0.63703E-03   -0.56517E-02    60   0.138E+00    0.565E-02
RMM:   2    -0.103584116387E+03   -0.43015E-04   -0.70600E-04    60   0.153E-01    0.351E-02
RMM:   3    -0.103584129070E+03   -0.12683E-04   -0.12878E-04    60   0.673E-02    0.828E-03
RMM:   4    -0.103584132891E+03   -0.38214E-05   -0.29144E-05    46   0.306E-02
  22 F= -.10378217E+03 E0= -.10378217E+03  d E =-.645021E-03
       N       E                     dE             d eps       ncg     rms          rms(c)
DAV:   1    -0.103584675762E+03   -0.54669E-03   -0.54958E-02    60   0.136E+00    0.558E-02
RMM:   2    -0.103584714721E+03   -0.38959E-04   -0.68852E-04    60   0.150E-01    0.345E-02
RMM:   3    -0.103584724126E+03   -0.94054E-05   -0.12159E-04    60   0.652E-02    0.990E-03
RMM:   4    -0.103584727730E+03   -0.36042E-05   -0.26729E-05    46   0.298E-02
  23 F= -.10378272E+03 E0= -.10378272E+03  d E =-.548236E-03
       N       E                     dE             d eps       ncg     rms          rms(c)
DAV:   1    -0.103584736177E+03   -0.12051E-04   -0.24347E-03    72   0.272E-01    0.213E-02
RMM:   2    -0.103584734383E+03    0.17943E-05   -0.61100E-05    48   0.407E-02
  24 F= -.10378273E+03 E0= -.10378273E+03  d E =-.136276E-04
       N       E                     dE             d eps       ncg     rms          rms(c)
DAV:   1    -0.103584865154E+03   -0.12898E-03   -0.38951E-03    60   0.365E-01    0.175E-02
RMM:   2    -0.103584868607E+03   -0.34529E-05   -0.69149E-05    49   0.463E-02
  25 F= -.10378285E+03 E0= -.10378285E+03  d E =-.121080E-03
       N       E                     dE             d eps       ncg     rms          rms(c)
DAV:   1    -0.103584985874E+03   -0.12072E-03   -0.43276E-03    60   0.382E-01    0.192E-02
RMM:   2    -0.103584988769E+03   -0.28953E-05   -0.65408E-05    49   0.454E-02
  26 F= -.10378296E+03 E0= -.10378296E+03  d E =-.113926E-03
       N       E                     dE             d eps       ncg     rms          rms(c)
DAV:   1    -0.103585714293E+03   -0.72842E-03   -0.90515E-01    60   0.549E+00    0.223E-01
RMM:   2    -0.103586396516E+03   -0.68222E-03   -0.11079E-02    60   0.604E-01    0.137E-01
RMM:   3    -0.103586533085E+03   -0.13657E-03   -0.19314E-03    61   0.262E-01    0.369E-02
RMM:   4    -0.103586580049E+03   -0.46964E-04   -0.41092E-04    62   0.118E-01    0.148E-02
RMM:   5    -0.103586593049E+03   -0.13001E-04   -0.10864E-04    59   0.559E-02    0.535E-03
RMM:   6    -0.103586595871E+03   -0.28219E-05   -0.11729E-05    40   0.209E-02
  27 F= -.10378442E+03 E0= -.10378442E+03  d E =-.145642E-02
       N       E                     dE             d eps       ncg     rms          rms(c)
DAV:   1    -0.103586454613E+03    0.13844E-03   -0.16753E-02    60   0.745E-01    0.478E-02
RMM:   2    -0.103586453206E+03    0.14079E-05   -0.35725E-04    60   0.101E-01    0.262E-02
RMM:   3    -0.103586449336E+03    0.38696E-05   -0.59534E-05    49   0.435E-02
  28 F= -.10378430E+03 E0= -.10378430E+03  d E =0.118634E-03
       N       E                     dE             d eps       ncg     rms          rms(c)
DAV:   1    -0.103586671733E+03   -0.21853E-03   -0.10361E-02    60   0.593E-01    0.285E-02
RMM:   2    -0.103586675403E+03   -0.36701E-05   -0.16053E-04    59   0.713E-02    0.164E-02
RMM:   3    -0.103586674494E+03    0.90876E-06   -0.26901E-05    45   0.299E-02
  29 F= -.10378451E+03 E0= -.10378451E+03  d E =-.203868E-03
       N       E                     dE             d eps       ncg     rms          rms(c)
DAV:   1    -0.103586767704E+03   -0.92301E-04   -0.34657E-03    66   0.342E-01    0.149E-02
RMM:   2    -0.103586770696E+03   -0.29919E-05   -0.47448E-05    48   0.393E-02
  30 F= -.10378459E+03 E0= -.10378459E+03  d E =-.848787E-04
       N       E                     dE             d eps       ncg     rms          rms(c)
DAV:   1    -0.103586912477E+03   -0.14477E-03   -0.21259E-02    60   0.848E-01    0.382E-02
RMM:   2    -0.103586926243E+03   -0.13766E-04   -0.31887E-04    60   0.100E-01    0.238E-02
RMM:   3    -0.103586929148E+03   -0.29054E-05   -0.56095E-05    51   0.436E-02
  31 F= -.10378473E+03 E0= -.10378473E+03  d E =-.143881E-03
       N       E                     dE             d eps       ncg     rms          rms(c)
DAV:   1    -0.103587435858E+03   -0.50962E-03   -0.24432E-01    60   0.286E+00    0.116E-01
RMM:   2    -0.103587620762E+03   -0.18490E-03   -0.30244E-03    60   0.318E-01    0.715E-02
RMM:   3    -0.103587664196E+03   -0.43434E-04   -0.52967E-04    61   0.138E-01    0.188E-02
RMM:   4    -0.103587677080E+03   -0.12884E-04   -0.11254E-04    59   0.624E-02    0.738E-03
RMM:   5    -0.103587680873E+03   -0.37930E-05   -0.28355E-05    44   0.295E-02
  32 F= -.10378540E+03 E0= -.10378540E+03  d E =-.666687E-03
       N       E                     dE             d eps       ncg     rms          rms(c)
DAV:   1    -0.103587755530E+03   -0.78450E-04   -0.31365E-03    60   0.330E-01    0.172E-02
RMM:   2    -0.103587756864E+03   -0.13344E-05   -0.56197E-05    50   0.427E-02
  33 F= -.10378547E+03 E0= -.10378547E+03  d E =-.638911E-04
       N       E                     dE             d eps       ncg     rms          rms(c)
DAV:   1    -0.103587774933E+03   -0.19403E-04   -0.30719E-04    82   0.986E-02    0.770E-03
RMM:   2    -0.103587775536E+03   -0.60390E-06   -0.88233E-06    38   0.151E-02
  34 F= -.10378549E+03 E0= -.10378549E+03  d E =-.202678E-04
       N       E                     dE             d eps       ncg     rms          rms(c)
DAV:   1    -0.103587827490E+03   -0.52557E-04   -0.10864E-03    66   0.193E-01    0.931E-03
RMM:   2    -0.103587828404E+03   -0.91461E-06   -0.13694E-05    39   0.216E-02
  35 F= -.10378553E+03 E0= -.10378553E+03  d E =-.483235E-04
       N       E                     dE             d eps       ncg     rms          rms(c)
DAV:   1    -0.103588157443E+03   -0.32995E-03   -0.64933E-02    60   0.149E+00    0.613E-02
RMM:   2    -0.103588200757E+03   -0.43314E-04   -0.76816E-04    60   0.163E-01    0.379E-02
RMM:   3    -0.103588212846E+03   -0.12089E-04   -0.13718E-04    60   0.709E-02    0.867E-03
RMM:   4    -0.103588216760E+03   -0.39137E-05   -0.32630E-05    47   0.326E-02
  36 F= -.10378588E+03 E0= -.10378588E+03  d E =-.348320E-03
       N       E                     dE             d eps       ncg     rms          rms(c)
DAV:   1    -0.103588429524E+03   -0.21668E-03   -0.28911E-02    60   0.992E-01    0.407E-02
RMM:   2    -0.103588449535E+03   -0.20010E-04   -0.35154E-04    60   0.110E-01    0.252E-02
RMM:   3    -0.103588454853E+03   -0.53180E-05   -0.65054E-05    55   0.482E-02
  37 F= -.10378609E+03 E0= -.10378609E+03  d E =-.210852E-03
       N       E                     dE             d eps       ncg     rms          rms(c)
DAV:   1    -0.103588291271E+03    0.15826E-03   -0.13613E-02    60   0.680E-01    0.277E-02
RMM:   2    -0.103588299499E+03   -0.82278E-05   -0.14911E-04    60   0.713E-02    0.167E-02
RMM:   3    -0.103588302255E+03   -0.27553E-05   -0.26216E-05    43   0.304E-02
  38 F= -.10378596E+03 E0= -.10378596E+03  d E =0.132537E-03
       N       E                     dE             d eps       ncg     rms          rms(c)
DAV:   1    -0.103588479608E+03   -0.18011E-03   -0.17462E-02    60   0.770E-01    0.309E-02
RMM:   2    -0.103588490561E+03   -0.10953E-04   -0.19714E-04    60   0.823E-02    0.188E-02
RMM:   3    -0.103588493347E+03   -0.27865E-05   -0.34602E-05    49   0.354E-02
  39 F= -.10378613E+03 E0= -.10378613E+03  d E =-.169169E-03
       N       E                     dE             d eps       ncg     rms          rms(c)
DAV:   1    -0.103588688621E+03   -0.19806E-03   -0.26387E-02    60   0.947E-01    0.391E-02
RMM:   2    -0.103588708045E+03   -0.19425E-04   -0.32754E-04    60   0.107E-01    0.244E-02
RMM:   3    -0.103588713223E+03   -0.51777E-05   -0.59087E-05    54   0.466E-02
  40 F= -.10378632E+03 E0= -.10378632E+03  d E =-.194935E-03
       N       E                     dE             d eps       ncg     rms          rms(c)
DAV:   1    -0.103588594637E+03    0.11341E-03   -0.86285E-03    60   0.540E-01    0.219E-02
RMM:   2    -0.103588599347E+03   -0.47093E-05   -0.94152E-05    59   0.566E-02
  41 F= -.10378622E+03 E0= -.10378622E+03  d E =0.101349E-03
       N       E                     dE             d eps       ncg     rms          rms(c)
DAV:   1    -0.103588707712E+03   -0.11308E-03   -0.64937E-03    60   0.466E-01    0.162E-02
RMM:   2    -0.103588712817E+03   -0.51047E-05   -0.71663E-05    57   0.501E-02
  42 F= -.10378632E+03 E0= -.10378632E+03  d E =-.100368E-03
       N       E                     dE             d eps       ncg     rms          rms(c)
DAV:   1    -0.103588918837E+03   -0.21112E-03   -0.27744E-02    60   0.976E-01    0.428E-02
RMM:   2    -0.103588935407E+03   -0.16570E-04   -0.32996E-04    60   0.108E-01    0.265E-02
RMM:   3    -0.103588940381E+03   -0.49731E-05   -0.62049E-05    56   0.474E-02
  43 F= -.10378652E+03 E0= -.10378652E+03  d E =-.200896E-03
       N       E                     dE             d eps       ncg     rms          rms(c)
DAV:   1    -0.103588889195E+03    0.46213E-04   -0.20802E-03    66   0.265E-01    0.109E-02
RMM:   2    -0.103588890059E+03   -0.86468E-06   -0.19032E-05    41   0.255E-02
  44 F= -.10378648E+03 E0= -.10378648E+03  d E =0.428244E-04
       N       E                     dE             d eps       ncg     rms          rms(c)
DAV:   1    -0.103588955454E+03   -0.66259E-04   -0.22556E-03    60   0.276E-01    0.101E-02
RMM:   2    -0.103588957182E+03   -0.17276E-05   -0.26171E-05    42   0.302E-02
  45 F= -.10378654E+03 E0= -.10378654E+03  d E =-.586869E-04
       N       E                     dE             d eps       ncg     rms          rms(c)
DAV:   1    -0.103589118823E+03   -0.16337E-03   -0.17488E-02    60   0.777E-01    0.343E-02
RMM:   2    -0.103589128806E+03   -0.99826E-05   -0.21116E-04    60   0.862E-02    0.213E-02
RMM:   3    -0.103589131709E+03   -0.29032E-05   -0.39740E-05    52   0.378E-02
  46 F= -.10378670E+03 E0= -.10378670E+03  d E =-.155395E-03
       N       E                     dE             d eps       ncg     rms          rms(c)
DAV:   1    -0.103589375443E+03   -0.24664E-03   -0.39353E-02    60   0.116E+00    0.491E-02
RMM:   2    -0.103589401400E+03   -0.25957E-04   -0.46520E-04    60   0.129E-01    0.304E-02
RMM:   3    -0.103589408176E+03   -0.67760E-05   -0.86345E-05    57   0.565E-02
  47 F= -.10378694E+03 E0= -.10378694E+03  d E =-.239919E-03
       N       E                     dE             d eps       ncg     rms          rms(c)
DAV:   1    -0.103589395696E+03    0.57038E-05   -0.41117E-04    82   0.118E-01    0.569E-03
RMM:   2    -0.103589395888E+03   -0.19115E-06   -0.29225E-06    38   0.988E-03
  48 F= -.10378693E+03 E0= -.10378693E+03  d E =0.873476E-05
       N       E                     dE             d eps       ncg     rms          rms(c)
DAV:   1    -0.103589466889E+03   -0.71193E-04   -0.25729E-03    60   0.297E-01    0.120E-02
RMM:   2    -0.103589468619E+03   -0.17296E-05   -0.29335E-05    44   0.322E-02
  49 F= -.10378699E+03 E0= -.10378699E+03  d E =-.635630E-04
       N       E                     dE             d eps       ncg     rms          rms(c)
DAV:   1    -0.103589577336E+03   -0.11045E-03   -0.58312E-03    60   0.450E-01    0.206E-02
RMM:   2    -0.103589580288E+03   -0.29512E-05   -0.65991E-05    56   0.489E-02
  50 F= -.10378709E+03 E0= -.10378709E+03  d E =-.991997E-04
       N       E                     dE             d eps       ncg     rms          rms(c)
DAV:   1    -0.103589577799E+03   -0.46271E-06   -0.20287E-04    66   0.814E-02    0.454E-03
RMM:   2    -0.103589577929E+03   -0.13015E-06   -0.43259E-06    38   0.116E-02
  51 F= -.10378709E+03 E0= -.10378709E+03  d E =0.240398E-05
       N       E                     dE             d eps       ncg     rms          rms(c)
DAV:   1    -0.103589607954E+03   -0.30155E-04   -0.37303E-04    66   0.114E-01    0.481E-03
RMM:   2    -0.103589608432E+03   -0.47719E-06   -0.50666E-06    37   0.132E-02
  52 F= -.10378712E+03 E0= -.10378712E+03  d E =-.281576E-04
       N       E                     dE             d eps       ncg     rms          rms(c)
DAV:   1    -0.103589870084E+03   -0.26213E-03   -0.24762E-02    60   0.924E-01    0.418E-02
RMM:   2    -0.103589881210E+03   -0.11126E-04   -0.25815E-04    60   0.980E-02    0.255E-02
RMM:   3    -0.103589885159E+03   -0.39494E-05   -0.51392E-05    55   0.431E-02
  53 F= -.10378736E+03 E0= -.10378736E+03  d E =-.249036E-03
       N       E                     dE             d eps       ncg     rms          rms(c)
DAV:   1    -0.103589885989E+03   -0.47793E-05   -0.79627E-04    60   0.156E-01    0.129E-02
RMM:   2    -0.103589885207E+03    0.78156E-06   -0.22416E-05    45   0.251E-02
  54 F= -.10378737E+03 E0= -.10378737E+03  d E =-.441357E-05
       N       E                     dE             d eps       ncg     rms          rms(c)
DAV:   1    -0.103589916150E+03   -0.30162E-04   -0.40001E-04    60   0.118E-01    0.717E-03
RMM:   2    -0.103589916630E+03   -0.47918E-06   -0.97583E-06    39   0.171E-02
  55 F= -.10378740E+03 E0= -.10378740E+03  d E =-.270201E-04
       N       E                     dE             d eps       ncg     rms          rms(c)
DAV:   1    -0.103589946319E+03   -0.30168E-04   -0.29064E-04    66   0.100E-01    0.574E-03
RMM:   2    -0.103589946497E+03   -0.17796E-06   -0.36433E-06    36   0.114E-02
  56 F= -.10378742E+03 E0= -.10378742E+03  d E =-.277018E-04
       N       E                     dE             d eps       ncg     rms          rms(c)
DAV:   1    -0.103590104543E+03   -0.15822E-03   -0.83923E-03    60   0.535E-01    0.241E-02
RMM:   2    -0.103590108053E+03   -0.35096E-05   -0.84906E-05    59   0.563E-02
  57 F= -.10378757E+03 E0= -.10378757E+03  d E =-.146460E-03
       N       E                     dE             d eps       ncg     rms          rms(c)
DAV:   1    -0.103590201247E+03   -0.96704E-04   -0.28098E-03    60   0.313E-01    0.158E-02
RMM:   2    -0.103590202329E+03   -0.10830E-05   -0.30836E-05    44   0.337E-02
  58 F= -.10378766E+03 E0= -.10378766E+03  d E =-.853673E-04
       N       E                     dE             d eps       ncg     rms          rms(c)
DAV:   1    -0.103590244769E+03   -0.43523E-04   -0.87087E-04    72   0.179E-01    0.976E-03
RMM:   2    -0.103590245201E+03   -0.43123E-06   -0.14274E-05    40   0.221E-02
  59 F= -.10378770E+03 E0= -.10378770E+03  d E =-.411643E-04
       N       E                     dE             d eps       ncg     rms          rms(c)
DAV:   1    -0.103590312335E+03   -0.67565E-04   -0.14824E-03    60   0.227E-01    0.119E-02
RMM:   2    -0.103590312889E+03   -0.55424E-06   -0.17965E-05    40   0.255E-02
  60 F= -.10378776E+03 E0= -.10378776E+03  d E =-.605467E-04
       N       E                     dE             d eps       ncg     rms          rms(c)
DAV:   1    -0.103590335811E+03   -0.23476E-04   -0.14465E-04    68   0.720E-02    0.470E-03
RMM:   2    -0.103590335886E+03   -0.75077E-07   -0.15080E-06    34   0.752E-03
  61 F= -.10378778E+03 E0= -.10378778E+03  d E =-.212159E-04
       N       E                     dE             d eps       ncg     rms          rms(c)
DAV:   1    -0.103590434959E+03   -0.99148E-04   -0.31496E-03    66   0.326E-01    0.148E-02
RMM:   2    -0.103590436389E+03   -0.14304E-05   -0.31769E-05    46   0.342E-02
  62 F= -.10378787E+03 E0= -.10378787E+03  d E =-.922989E-04
       N       E                     dE             d eps       ncg     rms          rms(c)
DAV:   1    -0.103590538824E+03   -0.10387E-03   -0.33861E-03    60   0.340E-01    0.166E-02
RMM:   2    -0.103590540054E+03   -0.12299E-05   -0.34710E-05    46   0.358E-02
  63 F= -.10378797E+03 E0= -.10378797E+03  d E =-.948939E-04
       N       E                     dE             d eps       ncg     rms          rms(c)
DAV:   1    -0.103590537750E+03    0.10733E-05   -0.37773E-05    82   0.356E-02    0.256E-03
RMM:   2    -0.103590537842E+03   -0.91767E-07   -0.95150E-07    29   0.570E-03
  64 F= -.10378796E+03 E0= -.10378796E+03  d E =0.110511E-05
       N       E                     dE             d eps       ncg     rms          rms(c)
DAV:   1    -0.103590534111E+03    0.36390E-05   -0.42384E-06    44   0.125E-02    0.821E-04
RMM:   2    -0.103590534192E+03   -0.80221E-07   -0.35170E-08    16   0.294E-03
  65 F= -.10378796E+03 E0= -.10378796E+03  d E =0.328694E-05
       N       E                     dE             d eps       ncg     rms          rms(c)
DAV:   1    -0.103590555054E+03   -0.20943E-04   -0.18963E-04    66   0.829E-02    0.488E-03
RMM:   2    -0.103590555177E+03   -0.12247E-06   -0.31873E-06    37   0.102E-02
  66 F= -.10378798E+03 E0= -.10378798E+03  d E =-.204082E-04
       N       E                     dE             d eps       ncg     rms          rms(c)
DAV:   1    -0.103590585276E+03   -0.30222E-04   -0.22313E-04    66   0.894E-02    0.535E-03
RMM:   2    -0.103590585321E+03   -0.44643E-07   -0.22030E-06    32   0.902E-03
  67 F= -.10378801E+03 E0= -.10378801E+03  d E =-.280445E-04
       N       E                     dE             d eps       ncg     rms          rms(c)
DAV:   1    -0.103590583798E+03    0.14786E-05   -0.57586E-04    60   0.141E-01    0.101E-02
RMM:   2    -0.103590583213E+03    0.58488E-06   -0.14693E-05    39   0.211E-02
  68 F= -.10378800E+03 E0= -.10378800E+03  d E =0.476760E-05
       N       E                     dE             d eps       ncg     rms          rms(c)
DAV:   1    -0.103590706500E+03   -0.12270E-03   -0.37606E-03    60   0.356E-01    0.170E-02
RMM:   2    -0.103590708068E+03   -0.15679E-05   -0.37297E-05    47   0.372E-02
  69 F= -.10378812E+03 E0= -.10378812E+03  d E =-.117824E-03
       N       E                     dE             d eps       ncg     rms          rms(c)
DAV:   1    -0.103590811502E+03   -0.10500E-03   -0.30757E-03    60   0.321E-01    0.166E-02
RMM:   2    -0.103590812412E+03   -0.90967E-06   -0.31127E-05    46   0.340E-02
  70 F= -.10378822E+03 E0= -.10378822E+03  d E =-.970457E-04
       N       E                     dE             d eps       ncg     rms          rms(c)
DAV:   1    -0.103590952503E+03   -0.14100E-03   -0.57084E-03    66   0.438E-01    0.215E-02
RMM:   2    -0.103590954548E+03   -0.20446E-05   -0.55121E-05    56   0.453E-02
  71 F= -.10378835E+03 E0= -.10378835E+03  d E =-.133192E-03
       N       E                     dE             d eps       ncg     rms          rms(c)
DAV:   1    -0.103591004134E+03   -0.51630E-04   -0.91368E-04    60   0.180E-01    0.938E-03
RMM:   2    -0.103591004609E+03   -0.47555E-06   -0.11432E-05    39   0.202E-02
  72 F= -.10378840E+03 E0= -.10378840E+03  d E =-.481888E-04
       N       E                     dE             d eps       ncg     rms          rms(c)
DAV:   1    -0.103591032549E+03   -0.28416E-04   -0.26100E-04    72   0.965E-02    0.561E-03
RMM:   2    -0.103591032654E+03   -0.10484E-06   -0.37954E-06    35   0.117E-02
  73 F= -.10378843E+03 E0= -.10378843E+03  d E =-.254818E-04
       N       E                     dE             d eps       ncg     rms          rms(c)
DAV:   1    -0.103591103046E+03   -0.70497E-04   -0.18416E-03    60   0.247E-01    0.117E-02
RMM:   2    -0.103591103782E+03   -0.73584E-06   -0.18600E-05    40   0.259E-02
  74 F= -.10378849E+03 E0= -.10378849E+03  d E =-.669071E-04
       N       E                     dE             d eps       ncg     rms          rms(c)
DAV:   1    -0.103591155971E+03   -0.52924E-04   -0.10026E-03    60   0.183E-01    0.901E-03
RMM:   2    -0.103591156363E+03   -0.39254E-06   -0.10203E-05    39   0.191E-02
  75 F= -.10378854E+03 E0= -.10378854E+03  d E =-.494429E-04
       N       E                     dE             d eps       ncg     rms          rms(c)
DAV:   1    -0.103591194114E+03   -0.38143E-04   -0.52646E-04    66   0.133E-01    0.645E-03
RMM:   2    -0.103591194355E+03   -0.24100E-06   -0.54718E-06    34   0.140E-02
  76 F= -.10378858E+03 E0= -.10378858E+03  d E =-.355611E-04
       N       E                     dE             d eps       ncg     rms          rms(c)
DAV:   1    -0.103591288529E+03   -0.94415E-04   -0.36122E-03    60   0.345E-01    0.157E-02
RMM:   2    -0.103591289983E+03   -0.14537E-05   -0.35975E-05    47   0.360E-02
  77 F= -.10378867E+03 E0= -.10378867E+03  d E =-.900906E-04
       N       E                     dE             d eps       ncg     rms          rms(c)
DAV:   1    -0.103591317773E+03   -0.29244E-04   -0.26557E-04    66   0.972E-02    0.580E-03
RMM:   2    -0.103591317829E+03   -0.55859E-07   -0.34772E-06    33   0.113E-02
  78 F= -.10378869E+03 E0= -.10378869E+03  d E =-.255587E-04
       N       E                     dE             d eps       ncg     rms          rms(c)
DAV:   1    -0.103591318327E+03   -0.55462E-06   -0.68714E-06    50   0.148E-02    0.112E-03
RMM:   2    -0.103591318412E+03   -0.84424E-07   -0.27602E-07    19   0.392E-03
  79 F= -.10378870E+03 E0= -.10378870E+03  d E =-.947628E-06
       N       E                     dE             d eps       ncg     rms          rms(c)
DAV:   1    -0.103591278271E+03    0.40056E-04   -0.56052E-04    66   0.136E-01    0.609E-03
RMM:   2    -0.103591278574E+03   -0.30279E-06   -0.55298E-06    36   0.141E-02
  80 F= -.10378866E+03 E0= -.10378866E+03  d E =0.377615E-04
       N       E                     dE             d eps       ncg     rms          rms(c)
DAV:   1    -0.103591455355E+03   -0.17708E-03   -0.12393E-02    60   0.638E-01    0.285E-02
RMM:   2    -0.103591460481E+03   -0.51265E-05   -0.12203E-04    60   0.668E-02    0.173E-02
RMM:   3    -0.103591462086E+03   -0.16045E-05   -0.25499E-05    43   0.293E-02
  81 F= -.10378883E+03 E0= -.10378883E+03  d E =-.173914E-03
       N       E                     dE             d eps       ncg     rms          rms(c)
DAV:   1    -0.103591497348E+03   -0.36867E-04   -0.47059E-04    60   0.124E-01    0.651E-03
RMM:   2    -0.103591497664E+03   -0.31620E-06   -0.68467E-06    37   0.155E-02
  82 F= -.10378886E+03 E0= -.10378886E+03  d E =-.331235E-04
       N       E                     dE             d eps       ncg     rms          rms(c)
DAV:   1    -0.103591494204E+03    0.31445E-05   -0.10580E-05    50   0.195E-02    0.902E-04
RMM:   2    -0.103591494325E+03   -0.12148E-06   -0.62431E-07    28   0.532E-03
  83 F= -.10378886E+03 E0= -.10378886E+03  d E =0.285407E-05
       N       E                     dE             d eps       ncg     rms          rms(c)
DAV:   1    -0.103591510888E+03   -0.16684E-04   -0.10094E-04    60   0.575E-02    0.265E-03
RMM:   2    -0.103591510969E+03   -0.80959E-07   -0.10524E-06    33   0.614E-03
  84 F= -.10378888E+03 E0= -.10378888E+03  d E =-.158401E-04
       N       E                     dE             d eps       ncg     rms          rms(c)
DAV:   1    -0.103591638425E+03   -0.12754E-03   -0.62003E-03    60   0.451E-01    0.211E-02
RMM:   2    -0.103591640616E+03   -0.21909E-05   -0.60141E-05    56   0.468E-02
  85 F= -.10378900E+03 E0= -.10378900E+03  d E =-.122834E-03
       N       E                     dE             d eps       ncg     rms          rms(c)
DAV:   1    -0.103591692558E+03   -0.54133E-04   -0.94017E-04    66   0.179E-01    0.980E-03
RMM:   2    -0.103591692806E+03   -0.24770E-06   -0.10458E-05    38   0.194E-02
  86 F= -.10378905E+03 E0= -.10378905E+03  d E =-.488696E-04
       N       E                     dE             d eps       ncg     rms          rms(c)
DAV:   1    -0.103591814063E+03   -0.12150E-03   -0.59212E-03    60   0.441E-01    0.209E-02
RMM:   2    -0.103591816228E+03   -0.21655E-05   -0.58223E-05    56   0.460E-02
  87 F= -.10378917E+03 E0= -.10378917E+03  d E =-.116943E-03
       N       E                     dE             d eps       ncg     rms          rms(c)
DAV:   1    -0.103591828582E+03   -0.14519E-04   -0.54406E-05    82   0.445E-02    0.385E-03
RMM:   2    -0.103591828572E+03    0.98366E-08   -0.51985E-07    25   0.469E-03
  88 F= -.10378918E+03 E0= -.10378918E+03  d E =-.120957E-04
       N       E                     dE             d eps       ncg     rms          rms(c)
DAV:   1    -0.103591826488E+03    0.20944E-05   -0.35912E-06    44   0.106E-02    0.558E-04
RMM:   2    -0.103591826550E+03   -0.62323E-07   -0.21378E-08    14   0.281E-03
  89 F= -.10378918E+03 E0= -.10378918E+03  d E =0.188648E-05
       N       E                     dE             d eps       ncg     rms          rms(c)
DAV:   1    -0.103591850604E+03   -0.24116E-04   -0.29150E-04    66   0.972E-02    0.424E-03
RMM:   2    -0.103591850776E+03   -0.17235E-06   -0.30661E-06    35   0.105E-02
  90 F= -.10378920E+03 E0= -.10378920E+03  d E =-.225476E-04
       N       E                     dE             d eps       ncg     rms          rms(c)
DAV:   1    -0.103591849423E+03    0.11813E-05   -0.22095E-06    52   0.907E-03    0.568E-04
RMM:   2    -0.103591849456E+03   -0.33421E-07   -0.34014E-08    13   0.244E-03
  91 F= -.10378920E+03 E0= -.10378920E+03  d E =0.141269E-05
       N       E                     dE             d eps       ncg     rms          rms(c)
DAV:   1    -0.103591818969E+03    0.30454E-04   -0.72818E-04    66   0.156E-01    0.632E-03
RMM:   2    -0.103591819411E+03   -0.44240E-06   -0.79259E-06    36   0.167E-02
  92 F= -.10378917E+03 E0= -.10378917E+03  d E =0.268995E-04
       N       E                     dE             d eps       ncg     rms          rms(c)
DAV:   1    -0.103591828826E+03   -0.98566E-05   -0.18462E-04    66   0.789E-02    0.332E-03
RMM:   2    -0.103591828961E+03   -0.13518E-06   -0.27143E-06    33   0.893E-03
  93 F= -.10378918E+03 E0= -.10378918E+03  d E =-.105027E-04
       N       E                     dE             d eps       ncg     rms          rms(c)
DAV:   1    -0.103591825852E+03    0.29738E-05   -0.12222E-04    66   0.643E-02    0.293E-03
RMM:   2    -0.103591825950E+03   -0.98157E-07   -0.17928E-06    31   0.754E-03
  94 F= -.10378918E+03 E0= -.10378918E+03  d E =0.129703E-05
       N       E                     dE             d eps       ncg     rms          rms(c)
DAV:   1    -0.103591851564E+03   -0.25712E-04   -0.27616E-04    60   0.974E-02    0.418E-03
RMM:   2    -0.103591851712E+03   -0.14799E-06   -0.31989E-06    32   0.108E-02
  95 F= -.10378921E+03 E0= -.10378921E+03  d E =-.260945E-04
       N       E                     dE             d eps       ncg     rms          rms(c)
DAV:   1    -0.103591871187E+03   -0.19623E-04   -0.13997E-04    66   0.691E-02    0.357E-03
RMM:   2    -0.103591871228E+03   -0.41161E-07   -0.14943E-06    32   0.738E-03
  96 F= -.10378923E+03 E0= -.10378923E+03  d E =-.195929E-04
       N       E                     dE             d eps       ncg     rms          rms(c)
DAV:   1    -0.103591890927E+03   -0.19740E-04   -0.14721E-04    66   0.695E-02    0.339E-03
RMM:   2    -0.103591890976E+03   -0.49378E-07   -0.14839E-06    32   0.722E-03
  97 F= -.10378924E+03 E0= -.10378924E+03  d E =-.191074E-04
       N       E                     dE             d eps       ncg     rms          rms(c)
DAV:   1    -0.103591932853E+03   -0.41926E-04   -0.69789E-04    60   0.151E-01    0.707E-03
RMM:   2    -0.103591933109E+03   -0.25669E-06   -0.69600E-06    35   0.156E-02
  98 F= -.10378929E+03 E0= -.10378929E+03  d E =-.406128E-04
       N       E                     dE             d eps       ncg     rms          rms(c)
DAV:   1    -0.103591956907E+03   -0.24054E-04   -0.21261E-04    66   0.845E-02    0.448E-03
RMM:   2    -0.103591956976E+03   -0.68947E-07   -0.22416E-06    32   0.892E-03
  99 F= -.10378931E+03 E0= -.10378931E+03  d E =-.233862E-04
       N       E                     dE             d eps       ncg     rms          rms(c)
DAV:   1    -0.103591994507E+03   -0.37600E-04   -0.56345E-04    60   0.136E-01    0.647E-03
RMM:   2    -0.103591994718E+03   -0.21114E-06   -0.56943E-06    33   0.141E-02
 100 F= -.10378934E+03 E0= -.10378934E+03  d E =-.363540E-04
       N       E                     dE             d eps       ncg     rms          rms(c)
DAV:   1    -0.103592065341E+03   -0.70834E-04   -0.20183E-03    60   0.256E-01    0.122E-02
RMM:   2    -0.103592066043E+03   -0.70234E-06   -0.19961E-05    41   0.265E-02
 101 F= -.10378941E+03 E0= -.10378941E+03  d E =-.684573E-04
       N       E                     dE             d eps       ncg     rms          rms(c)
DAV:   1    -0.103592080541E+03   -0.15200E-04   -0.74312E-05    82   0.512E-02    0.338E-03
RMM:   2    -0.103592080545E+03   -0.42346E-08   -0.66719E-07    25   0.519E-03
 102 F= -.10378943E+03 E0= -.10378943E+03  d E =-.140412E-04
       N       E                     dE             d eps       ncg     rms          rms(c)
DAV:   1    -0.103592085621E+03   -0.50806E-05   -0.82672E-06    42   0.177E-02    0.870E-04
RMM:   2    -0.103592085672E+03   -0.50378E-07   -0.40168E-07    25   0.445E-03
 103 F= -.10378943E+03 E0= -.10378943E+03  d E =-.486940E-05
       N       E                     dE             d eps       ncg     rms          rms(c)
DAV:   1    -0.103592011674E+03    0.73948E-04   -0.18067E-03    60   0.243E-01    0.115E-02
RMM:   2    -0.103592012343E+03   -0.66991E-06   -0.17230E-05    38   0.248E-02
 104 F= -.10378936E+03 E0= -.10378936E+03  d E =0.706468E-04
       N       E                     dE             d eps       ncg     rms          rms(c)
DAV:   1    -0.103592198339E+03   -0.18667E-03   -0.13100E-02    60   0.651E-01    0.300E-02
RMM:   2    -0.103592202859E+03   -0.45204E-05   -0.12278E-04    60   0.667E-02    0.182E-02
RMM:   3    -0.103592204501E+03   -0.16423E-05   -0.26153E-05    43   0.293E-02
 105 F= -.10378955E+03 E0= -.10378955E+03  d E =-.183858E-03
       N       E                     dE             d eps       ncg     rms          rms(c)
DAV:   1    -0.103592336755E+03   -0.13390E-03   -0.77127E-03    60   0.503E-01    0.238E-02
RMM:   2    -0.103592340331E+03   -0.35752E-05   -0.84069E-05    60   0.553E-02
 106 F= -.10378968E+03 E0= -.10378968E+03  d E =-.131482E-03
       N       E                     dE             d eps       ncg     rms          rms(c)
DAV:   1    -0.103592273024E+03    0.63731E-04   -0.20558E-03    60   0.257E-01    0.104E-02
RMM:   2    -0.103592273949E+03   -0.92494E-06   -0.19846E-05    40   0.271E-02
 107 F= -.10378961E+03 E0= -.10378961E+03  d E =0.644051E-04
       N       E                     dE             d eps       ncg     rms          rms(c)
DAV:   1    -0.103592310882E+03   -0.37858E-04   -0.56707E-04    60   0.134E-01    0.487E-03
RMM:   2    -0.103592311275E+03   -0.39303E-06   -0.56551E-06    36   0.141E-02
 108 F= -.10378965E+03 E0= -.10378965E+03  d E =-.355357E-04
