<?xml version="1.0" encoding="ISO-8859-1"?>
<modeling>
 <generator>
  <i name="program" type="string">vasp </i>
  <i name="version" type="string">6.3.2  </i>
  <i name="subversion" type="string">27Jun22 (build Oct 05 2023 17:59:42) gamma-only                       parallel </i>
  <i name="platform" type="string">LinuxIFC </i>
  <i name="date" type="string">2024 04 05 </i>
  <i name="time" type="string">18:28:44 </i>
 </generator>
 <incar>
  <i type="string" name="PREC">NORMAL</i>
  <i type="string" name="ALGO">Fast</i>
  <i type="int" name="ISPIN">     1</i>
  <i type="int" name="IBRION">     1</i>
  <i name="EDIFF">      0.00001000</i>
  <i name="EDIFFG">     -0.05000000</i>
  <i type="int" name="NSW">  5000</i>
  <i name="ENCUT">    400.00000000</i>
  <i name="POTIM">      0.10000000</i>
  <i type="int" name="ISMEAR">     0</i>
  <i name="SIGMA">      0.05000000</i>
  <i type="logical" name="LWAVE"> F  </i>
  <i type="logical" name="LCHARG"> F  </i>
  <i type="string" name="GGA">PE</i>
  <i type="int" name="IVDW">    11</i>
  <i name="SPRING">     -5.00000000</i>
 </incar>
 <primitive_cell>
  <structure name="primitive_cell" >
   <crystal>
    <varray name="basis" >
     <v>      15.40225029       0.00000000       0.00000000 </v>
     <v>       0.00000000      15.40225029       0.00000000 </v>
     <v>       0.00000000       0.00000000      15.40225029 </v>
    </varray>
    <i name="volume">   3653.86527022 </i>
    <varray name="rec_basis" >
     <v>       0.06492558       0.00000000       0.00000000 </v>
     <v>       0.00000000       0.06492558       0.00000000 </v>
     <v>       0.00000000       0.00000000       0.06492558 </v>
    </varray>
   </crystal>
   <varray name="positions" >
    <v>       0.33945137       0.43962330       0.56873454 </v>
    <v>       0.33738673       0.52644263       0.57369127 </v>
    <v>       0.41499189       0.58157966       0.55656210 </v>
    <v>       0.41675809       0.39023570       0.53803054 </v>
    <v>       0.49945239       0.44561821       0.53308998 </v>
    <v>       0.47822331       0.53465975       0.49540301 </v>
    <v>       0.55627352       0.58567291       0.48140143 </v>
    <v>       0.28152305       0.40201348       0.58372051 </v>
    <v>       0.42793015       0.33341481       0.57957794 </v>
    <v>       0.40500962       0.36315550       0.47315670 </v>
    <v>       0.27763313       0.55892747       0.59293144 </v>
    <v>       0.45130682       0.59543493       0.61622302 </v>
    <v>       0.39634088       0.64516320       0.53073510 </v>
    <v>       0.54928134       0.41278640       0.49444440 </v>
    <v>       0.52671980       0.45538599       0.59766860 </v>
    <v>       0.44653358       0.52569789       0.43243608 </v>
    <v>       0.61960660       0.62613637       0.47232078 </v>
   </varray>
  </structure>
  <varray name="primitive_index" >
   <v type="int" >        1 </v>
   <v type="int" >        2 </v>
   <v type="int" >        3 </v>
   <v type="int" >        4 </v>
   <v type="int" >        5 </v>
   <v type="int" >        6 </v>
   <v type="int" >        7 </v>
   <v type="int" >        8 </v>
   <v type="int" >        9 </v>
   <v type="int" >       10 </v>
   <v type="int" >       11 </v>
   <v type="int" >       12 </v>
   <v type="int" >       13 </v>
   <v type="int" >       14 </v>
   <v type="int" >       15 </v>
   <v type="int" >       16 </v>
   <v type="int" >       17 </v>
  </varray>
 </primitive_cell>
 <kpoints>
  <generation param="Monkhorst-Pack">
   <v type="int" name="divisions">       1        1        1 </v>
   <v name="usershift">      0.00000000       0.00000000       0.00000000 </v>
   <v name="genvec1">      1.00000000       0.00000000       0.00000000 </v>
   <v name="genvec2">      0.00000000       1.00000000       0.00000000 </v>
   <v name="genvec3">      0.00000000       0.00000000       1.00000000 </v>
   <v name="shift">      0.00000000       0.00000000       0.00000000 </v>
  </generation>
  <varray name="kpointlist" >
   <v>       0.00000000       0.00000000       0.00000000 </v>
  </varray>
  <varray name="weights" >
   <v>       1.00000000 </v>
  </varray>
 </kpoints>
 <parameters>
  <separator name="general" >
   <i type="string" name="SYSTEM">unknown system</i>
   <i type="logical" name="LCOMPAT"> F  </i>
  </separator>
  <separator name="electronic" >
   <i type="string" name="PREC">normal</i>
   <i name="ENMAX">    400.00000000</i>
   <i name="ENAUG">    644.87300000</i>
   <i name="EDIFF">      0.00001000</i>
   <i type="int" name="IALGO">    68</i>
   <i type="int" name="IWAVPR">    11</i>
   <i type="int" name="NBANDS">    30</i>
   <i type="int" name="NBANDSLOW">    -1</i>
   <i type="int" name="NBANDSHIGH">    -1</i>
   <i name="NELECT">     42.00000000</i>
   <i type="int" name="TURBO">     0</i>
   <i type="int" name="IRESTART">     0</i>
   <i type="int" name="NREBOOT">     0</i>
   <i type="int" name="NMIN">     0</i>
   <i name="EREF">      0.00000000</i>
   <separator name="electronic smearing" >
    <i type="int" name="ISMEAR">     0</i>
    <i name="SIGMA">      0.05000000</i>
    <i name="KSPACING">      0.50000000</i>
    <i type="logical" name="KGAMMA"> T  </i>
    <i type="logical" name="KBLOWUP"> T  </i>
   </separator>
   <separator name="electronic projectors" >
    <i type="logical" name="LREAL"> F  </i>
    <v name="ROPT">      0.00000000      0.00000000      0.00000000</v>
    <i type="int" name="LMAXPAW">  -100</i>
    <i type="int" name="LMAXMIX">     2</i>
    <i type="logical" name="NLSPLINE"> F  </i>
   </separator>
   <separator name="electronic startup" >
    <i type="int" name="ISTART">     0</i>
    <i type="int" name="ICHARG">     2</i>
    <i type="int" name="INIWAV">     1</i>
   </separator>
   <separator name="electronic spin" >
    <i type="int" name="ISPIN">     1</i>
    <i type="logical" name="LNONCOLLINEAR"> F  </i>
    <v name="MAGMOM">      1.00000000      1.00000000      1.00000000      1.00000000      1.00000000      1.00000000      1.00000000      1.00000000      1.00000000      1.00000000      1.00000000      1.00000000      1.00000000      1.00000000      1.00000000      1.00000000      1.00000000</v>
    <i name="NUPDOWN">     -1.00000000</i>
    <i type="logical" name="LSORBIT"> F  </i>
    <v name="SAXIS">      0.00000000      0.00000000      1.00000000</v>
    <i type="logical" name="LSPIRAL"> F  </i>
    <v name="QSPIRAL">      0.00000000      0.00000000      0.00000000</v>
    <i type="logical" name="LZEROZ"> F  </i>
   </separator>
   <separator name="electronic exchange-correlation" >
    <i type="logical" name="LASPH"> F  </i>
    <i type="logical" name="LMETAGGA"> F  </i>
   </separator>
   <separator name="electronic convergence" >
    <i type="int" name="NELM">    60</i>
    <i type="int" name="NELMDL">    -5</i>
    <i type="int" name="NELMIN">     2</i>
    <i name="ENINI">    400.00000000</i>
    <separator name="electronic convergence detail" >
     <i type="logical" name="LDIAG"> T  </i>
     <i type="logical" name="LSUBROT"> F  </i>
     <i name="WEIMIN">      0.00100000</i>
     <i name="EBREAK">      0.00000008</i>
     <i name="DEPER">      0.30000000</i>
     <i type="int" name="NRMM">     4</i>
     <i name="TIME">      0.40000000</i>
    </separator>
   </separator>
   <separator name="electronic mixer" >
    <i name="AMIX">      0.40000000</i>
    <i name="BMIX">      1.00000000</i>
    <i name="AMIN">      0.10000000</i>
    <i name="AMIX_MAG">      1.60000000</i>
    <i name="BMIX_MAG">      1.00000000</i>
    <separator name="electronic mixer details" >
     <i type="int" name="IMIX">     4</i>
     <i type="logical" name="MIXFIRST"> F  </i>
     <i type="int" name="MAXMIX">   -45</i>
     <i name="WC">    100.00000000</i>
     <i type="int" name="INIMIX">     1</i>
     <i type="int" name="MIXPRE">     1</i>
     <i type="int" name="MREMOVE">     5</i>
    </separator>
   </separator>
   <separator name="electronic dipolcorrection" >
    <i type="logical" name="LDIPOL"> F  </i>
    <i type="logical" name="LMONO"> F  </i>
    <i type="int" name="IDIPOL">     0</i>
    <i name="EPSILON">      1.00000000</i>
    <v name="DIPOL">   -100.00000000   -100.00000000   -100.00000000</v>
    <i name="EFIELD">      0.00000000</i>
   </separator>
  </separator>
  <separator name="grids" >
   <i type="int" name="NGX">    80</i>
   <i type="int" name="NGY">    80</i>
   <i type="int" name="NGZ">    80</i>
   <i type="int" name="NGXF">   160</i>
   <i type="int" name="NGYF">   160</i>
   <i type="int" name="NGZF">   160</i>
   <i type="logical" name="ADDGRID"> F  </i>
  </separator>
  <separator name="ionic" >
   <i type="int" name="NSW">  5000</i>
   <i type="int" name="IBRION">     1</i>
   <i type="int" name="MDALGO">     0</i>
   <i type="int" name="ISIF">     2</i>
   <i name="PSTRESS">      0.00000000</i>
   <i name="EDIFFG">     -0.05000000</i>
   <i type="int" name="NFREE">     0</i>
   <i name="POTIM">      0.10000000</i>
   <i name="SMASS">     -3.00000000</i>
   <i name="SCALEE">      1.00000000</i>
  </separator>
  <separator name="ionic md" >
   <i name="TEBEG">      0.00010000</i>
   <i name="TEEND">      0.00010000</i>
   <i type="int" name="NBLOCK">     1</i>
   <i type="int" name="KBLOCK">  5000</i>
   <i type="int" name="NPACO">   256</i>
   <i name="APACO">     10.00000000</i>
  </separator>
  <separator name="symmetry" >
   <i type="int" name="ISYM">     2</i>
   <i name="SYMPREC">      0.00001000</i>
  </separator>
  <separator name="dos" >
   <i type="int" name="LORBIT">     0</i>
   <v name="RWIGS">     -1.00000000     -1.00000000     -1.00000000</v>
   <i type="int" name="NEDOS">   301</i>
   <i name="EMIN">     10.00000000</i>
   <i name="EMAX">    -10.00000000</i>
   <i name="EFERMI">      0.00000000</i>
  </separator>
  <separator name="writing" >
   <i type="int" name="NWRITE">     2</i>
   <i type="logical" name="LWAVE"> F  </i>
   <i type="logical" name="LDOWNSAMPLE"> F  </i>
   <i type="logical" name="LCHARG"> F  </i>
   <i type="logical" name="LPARD"> F  </i>
   <i type="logical" name="LVTOT"> F  </i>
   <i type="logical" name="LVHAR"> F  </i>
   <i type="logical" name="LELF"> F  </i>
   <i type="logical" name="LOPTICS"> F  </i>
   <v name="STM">      0.00000000      0.00000000      0.00000000      0.00000000      0.00000000      0.00000000      0.00000000</v>
  </separator>
  <separator name="performance" >
   <i type="int" name="NPAR">     2</i>
   <i type="int" name="NSIM">     4</i>
   <i type="int" name="NBLK">    -1</i>
   <i type="logical" name="LPLANE"> T  </i>
   <i type="logical" name="LSCALAPACK"> T  </i>
   <i type="logical" name="LSCAAWARE"> F  </i>
   <i type="logical" name="LSCALU"> F  </i>
   <i type="logical" name="LASYNC"> F  </i>
   <i type="logical" name="LORBITALREAL"> F  </i>
  </separator>
  <separator name="miscellaneous" >
   <i type="int" name="IDIOT">     3</i>
   <i type="int" name="PHON_NSTRUCT">    -1</i>
   <i type="logical" name="LMUSIC"> F  </i>
   <v name="POMASS">     12.01100000      1.00000000     14.00100000</v>
   <v name="DARWINR">      0.00000000      0.00000000      0.00000000</v>
   <v name="DARWINV">      1.00000000      1.00000000      1.00000000</v>
   <i type="logical" name="LCORR"> T  </i>
  </separator>
  <i type="logical" name="GGA_COMPAT"> T  </i>
  <i type="logical" name="LBERRY"> F  </i>
  <i type="int" name="ICORELEVEL">     0</i>
  <i type="logical" name="LDAU"> F  </i>
  <i type="int" name="I_CONSTRAINED_M">     0</i>
  <separator name="electronic exchange-correlation" >
   <i type="string" name="GGA">PE</i>
   <i type="int" name="VOSKOWN">     0</i>
   <i type="logical" name="LHFCALC"> F  </i>
   <i type="string" name="PRECFOCK"></i>
   <i type="logical" name="LSYMGRAD"> F  </i>
   <i type="logical" name="LHFONE"> F  </i>
   <i type="logical" name="LRHFCALC"> F  </i>
   <i type="logical" name="LTHOMAS"> F  </i>
   <i type="logical" name="LMODELHF"> F  </i>
   <i type="logical" name="LFOCKACE"> F  </i>
   <i name="ENCUT4O">     -1.00000000</i>
   <i type="int" name="EXXOEP">     0</i>
   <i type="int" name="FOURORBIT">     0</i>
   <i name="AEXX">      0.00000000</i>
   <i name="HFALPHA">      0.00000000</i>
   <i name="MCALPHA">      0.00000000</i>
   <i name="ALDAX">      1.00000000</i>
   <i name="AGGAX">      1.00000000</i>
   <i name="ALDAC">      1.00000000</i>
   <i name="AGGAC">      1.00000000</i>
   <i type="int" name="NKREDX">     1</i>
   <i type="int" name="NKREDY">     1</i>
   <i type="int" name="NKREDZ">     1</i>
   <i type="logical" name="SHIFTRED"> F  </i>
   <i type="logical" name="ODDONLY"> F  </i>
   <i type="logical" name="EVENONLY"> F  </i>
   <i type="int" name="LMAXFOCK">     0</i>
   <i type="int" name="NMAXFOCKAE">     0</i>
   <i type="logical" name="LFOCKAEDFT"> F  </i>
   <i name="HFSCREEN">      0.00000000</i>
   <i name="HFSCREENC">      0.00000000</i>
   <i type="int" name="NBANDSGWLOW">     0</i>
  </separator>
  <separator name="vdW DFT" >
   <i type="logical" name="LUSE_VDW"> F  </i>
   <i name="Zab_VDW">     -0.84910000</i>
   <i name="PARAM1">      0.12340000</i>
   <i name="PARAM2">      1.00000000</i>
   <i name="PARAM3">      0.00000000</i>
  </separator>
  <separator name="model GW" >
   <i type="int" name="MODEL_GW">     0</i>
   <i name="MODEL_EPS0">    128.95995071</i>
   <i name="MODEL_ALPHA">      1.00000000</i>
  </separator>
  <separator name="linear response parameters" >
   <i type="logical" name="LEPSILON"> F  </i>
   <i type="logical" name="LRPA"> F  </i>
   <i type="logical" name="LNABLA"> F  </i>
   <i type="logical" name="LVEL"> F  </i>
   <i name="CSHIFT">      0.10000000</i>
   <i name="OMEGAMAX">     -1.00000000</i>
   <i name="DEG_THRESHOLD">      0.00200000</i>
   <i name="RTIME">     -0.10000000</i>
   <i name="WPLASMAI">      0.00000000</i>
   <v name="DFIELD">      0.00000000      0.00000000      0.00000000</v>
   <v name="WPLASMA">      0.00000000      0.00000000      0.00000000      0.00000000      0.00000000      0.00000000      0.00000000      0.00000000      0.00000000</v>
  </separator>
  <separator name="orbital magnetization" >
   <i type="logical" name="NUCIND"> F  </i>
   <v name="MAGPOS">      0.00000000      0.00000000      0.00000000</v>
   <i type="logical" name="LNICSALL"> T  </i>
   <i type="logical" name="ORBITALMAG"> F  </i>
   <i type="logical" name="LMAGBLOCH"> F  </i>
   <i type="logical" name="LCHIMAG"> F  </i>
   <i type="logical" name="LGAUGE"> T  </i>
   <i type="int" name="MAGATOM">     0</i>
   <v name="MAGDIPOL">      0.00000000      0.00000000      0.00000000</v>
   <v name="AVECCONST">      0.00000000      0.00000000      0.00000000</v>
  </separator>
  <separator name="response functions" >
   <i type="logical" name="LFINITE_TEMPERATURE"> F  </i>
   <i type="logical" name="LADDER"> F  </i>
   <i type="logical" name="LRPAFORCE"> F  </i>
   <i type="logical" name="LFXC"> F  </i>
   <i type="logical" name="LHARTREE"> T  </i>
   <i type="int" name="IBSE">     0</i>
   <v type="int" name="KPOINT">    -1     0     0     0</v>
   <i type="logical" name="LTCTC"> F  </i>
   <i type="logical" name="LTCTE"> F  </i>
   <i type="logical" name="LTETE"> F  </i>
   <i type="logical" name="LTRIPLET"> F  </i>
   <i type="logical" name="LFXCEPS"> F  </i>
   <i type="logical" name="LFXHEG"> F  </i>
   <i type="int" name="NATURALO">     2</i>
   <i type="logical" name="LHOLEGF"> F  </i>
   <i type="logical" name="L2ORDER"> F  </i>
   <i type="logical" name="LDMP1"> F  </i>
   <i type="logical" name="LMP2LT"> F  </i>
   <i type="logical" name="LSMP2LT"> F  </i>
   <i type="logical" name="LGWLF"> F  </i>
   <i name="ENCUTGW">     -2.00000000</i>
   <i name="ENCUTGWSOFT">     -2.00000000</i>
   <i name="ENCUTLF">     -1.00000000</i>
   <i type="logical" name="LESF_SPLINES"> F  </i>
   <i type="int" name="LMAXMP2">    -1</i>
   <i name="SCISSOR">      0.00000000</i>
   <i type="int" name="NOMEGA">     0</i>
   <i type="int" name="NOMEGAR">     0</i>
   <i type="int" name="NBANDSGW">    -1</i>
   <i type="int" name="NBANDSO">    -1</i>
   <i type="int" name="NBANDSV">    -1</i>
   <i type="int" name="NELMGW">     1</i>
   <i type="int" name="NELMHF">     1</i>
   <i type="int" name="DIM">     3</i>
   <i type="int" name="IESPILON">     4</i>
   <i type="int" name="ANTIRES">     0</i>
   <i name="OMEGAMAX">    -30.00000000</i>
   <i name="OMEGAMIN">    -30.00000000</i>
   <i name="OMEGATL">   -200.00000000</i>
   <i type="int" name="OMEGAGRID">     0</i>
   <i name="CSHIFT">     -0.10000000</i>
   <i type="logical" name="LSELFENERGY"> F  </i>
   <i type="logical" name="LSPECTRAL"> F  </i>
   <i type="logical" name="LSPECTRALGW"> F  </i>
   <i type="logical" name="LSINGLES"> F  </i>
   <i type="logical" name="LFERMIGW"> F  </i>
   <i type="logical" name="ODDONLYGW"> F  </i>
   <i type="logical" name="EVENONLYGW"> F  </i>
   <i type="int" name="NKREDLFX">     1</i>
   <i type="int" name="NKREDLFY">     1</i>
   <i type="int" name="NKREDLFZ">     1</i>
   <i type="int" name="MAXMEM">  2800</i>
   <i type="int" name="TELESCOPE">     0</i>
   <i type="int" name="NTAUPAR">    -1</i>
   <i type="int" name="NOMEGAPAR">    -1</i>
   <i name="DAMP_NEWTON">      0.80000001</i>
   <i name="LAMBDA">      1.00000000</i>
  </separator>
  <separator name="External order field" >
   <i name="OFIELD_KAPPA">      0.00000000</i>
   <v name="OFIELD_K">      0.00000000      0.00000000      0.00000000</v>
   <i name="OFIELD_Q6_NEAR">      0.00000000</i>
   <i name="OFIELD_Q6_FAR">      0.00000000</i>
   <i name="OFIELD_A">      0.00000000</i>
  </separator>
  <separator name="optional k-points parameters" >
   <i type="int" name="KPOINTS_OPT_MODE">     1</i>
   <i type="logical" name="LKPOINTS_OPT"> F  </i>
  </separator>
 </parameters>
 <atominfo>
  <atoms>      17 </atoms>
  <types>       3 </types>
  <array name="atoms" >
   <dimension dim="1">ion</dimension>
   <field type="string">element</field>
   <field type="int">atomtype</field>
   <set>
    <rc><c>C </c><c>   1</c></rc>
    <rc><c>C </c><c>   1</c></rc>
    <rc><c>C </c><c>   1</c></rc>
    <rc><c>C </c><c>   1</c></rc>
    <rc><c>C </c><c>   1</c></rc>
    <rc><c>C </c><c>   1</c></rc>
    <rc><c>C </c><c>   1</c></rc>
    <rc><c>H </c><c>   2</c></rc>
    <rc><c>H </c><c>   2</c></rc>
    <rc><c>H </c><c>   2</c></rc>
    <rc><c>H </c><c>   2</c></rc>
    <rc><c>H </c><c>   2</c></rc>
    <rc><c>H </c><c>   2</c></rc>
    <rc><c>H </c><c>   2</c></rc>
    <rc><c>H </c><c>   2</c></rc>
    <rc><c>H </c><c>   2</c></rc>
    <rc><c>N </c><c>   3</c></rc>
   </set>
  </array>
  <array name="atomtypes" >
   <dimension dim="1">type</dimension>
   <field type="int">atomspertype</field>
   <field type="string">element</field>
   <field>mass</field>
   <field>valence</field>
   <field type="string">pseudopotential</field>
   <set>
    <rc><c>   7</c><c>C </c><c>     12.01100000</c><c>      4.00000000</c><c>  PAW_PBE C 08Apr2002                   </c></rc>
    <rc><c>   9</c><c>H </c><c>      1.00000000</c><c>      1.00000000</c><c>  PAW_PBE H 15Jun2001                   </c></rc>
    <rc><c>   1</c><c>N </c><c>     14.00100000</c><c>      5.00000000</c><c>  PAW_PBE N 08Apr2002                   </c></rc>
   </set>
  </array>
 </atominfo>
 <structure name="initialpos" >
  <crystal>
   <varray name="basis" >
    <v>      15.40225029       0.00000000       0.00000000 </v>
    <v>       0.00000000      15.40225029       0.00000000 </v>
    <v>       0.00000000       0.00000000      15.40225029 </v>
   </varray>
   <i name="volume">   3653.86527022 </i>
   <varray name="rec_basis" >
    <v>       0.06492558       0.00000000       0.00000000 </v>
    <v>       0.00000000       0.06492558       0.00000000 </v>
    <v>       0.00000000       0.00000000       0.06492558 </v>
   </varray>
  </crystal>
  <varray name="positions" >
   <v>       0.33945137       0.43962330       0.56873454 </v>
   <v>       0.33738673       0.52644263       0.57369127 </v>
   <v>       0.41499189       0.58157966       0.55656210 </v>
   <v>       0.41675809       0.39023570       0.53803054 </v>
   <v>       0.49945239       0.44561821       0.53308998 </v>
   <v>       0.47822331       0.53465975       0.49540301 </v>
   <v>       0.55627352       0.58567291       0.48140143 </v>
   <v>       0.28152305       0.40201348       0.58372051 </v>
   <v>       0.42793015       0.33341481       0.57957794 </v>
   <v>       0.40500962       0.36315550       0.47315670 </v>
   <v>       0.27763313       0.55892747       0.59293144 </v>
   <v>       0.45130682       0.59543493       0.61622302 </v>
   <v>       0.39634088       0.64516320       0.53073510 </v>
   <v>       0.54928134       0.41278640       0.49444440 </v>
   <v>       0.52671980       0.45538599       0.59766860 </v>
   <v>       0.44653358       0.52569789       0.43243608 </v>
   <v>       0.61960660       0.62613637       0.47232078 </v>
  </varray>
 </structure>
 <calculation>
  <scstep>
   <time name="dav">    3.62    3.62</time>
   <time name="total">    5.76    5.76</time>
   <energy>
    <i name="alphaZ">      2.15216506 </i>
    <i name="ewald">   2584.85016000 </i>
    <i name="hartreedc">  -3520.39193168 </i>
    <i name="XCdc">    131.54653116 </i>
    <i name="pawpsdc">    983.79330320 </i>
    <i name="pawaedc">   -989.05002801 </i>
    <i name="eentropy">     -0.03613724 </i>
    <i name="bandstr">   -259.41579864 </i>
    <i name="atom">   1406.67326350 </i>
    <i name="e_fr_energy">    340.12152735 </i>
    <i name="e_wo_entrp">    340.15766459 </i>
    <i name="e_0_energy">    340.13959597 </i>
   </energy>
  </scstep>
  <scstep>
   <time name="dav">    4.05    4.05</time>
   <time name="total">    4.05    4.06</time>
   <energy>
    <i name="e_fr_energy">     78.55687674 </i>
    <i name="e_wo_entrp">     78.55687674 </i>
    <i name="e_0_energy">     78.55687674 </i>
   </energy>
  </scstep>
  <scstep>
   <time name="dav">    3.90    3.90</time>
   <time name="total">    3.90    3.90</time>
   <energy>
    <i name="e_fr_energy">    -91.22551779 </i>
    <i name="e_wo_entrp">    -91.22551779 </i>
    <i name="e_0_energy">    -91.22551779 </i>
   </energy>
  </scstep>
  <scstep>
   <time name="dav">    4.23    4.23</time>
   <time name="total">    4.23    4.23</time>
   <energy>
    <i name="e_fr_energy">   -113.96908738 </i>
    <i name="e_wo_entrp">   -113.96908738 </i>
    <i name="e_0_energy">   -113.96908738 </i>
   </energy>
  </scstep>
  <scstep>
   <time name="dav">    3.96    3.96</time>
   <time name="total">    4.43    4.44</time>
   <energy>
    <i name="e_fr_energy">   -114.29526559 </i>
    <i name="e_wo_entrp">   -114.29526559 </i>
    <i name="e_0_energy">   -114.29526559 </i>
   </energy>
  </scstep>
  <scstep>
   <time name="diag">    0.61    0.61</time>
   <time name="diis">    2.98    2.98</time>
   <time name="orth">    0.02    0.02</time>
   <time name="total">    6.24    6.24</time>
   <energy>
    <i name="e_fr_energy">   -105.85669261 </i>
    <i name="e_wo_entrp">   -105.85669261 </i>
    <i name="e_0_energy">   -105.85669261 </i>
   </energy>
  </scstep>
  <scstep>
   <time name="diag">    0.64    0.64</time>
   <time name="diis">    3.23    3.23</time>
   <time name="orth">    0.02    0.03</time>
   <time name="total">    6.62    6.63</time>
   <energy>
    <i name="e_fr_energy">   -103.77506766 </i>
    <i name="e_wo_entrp">   -103.77506766 </i>
    <i name="e_0_energy">   -103.77506766 </i>
   </energy>
  </scstep>
  <scstep>
   <time name="diag">    0.60    0.60</time>
   <time name="diis">    3.04    3.04</time>
   <time name="orth">    0.02    0.02</time>
   <time name="total">    6.29    6.30</time>
   <energy>
    <i name="e_fr_energy">   -103.60107749 </i>
    <i name="e_wo_entrp">   -103.60107749 </i>
    <i name="e_0_energy">   -103.60107749 </i>
   </energy>
  </scstep>
  <scstep>
   <time name="diag">    0.64    0.64</time>
   <time name="diis">    3.22    3.22</time>
   <time name="orth">    0.03    0.03</time>
   <time name="total">    6.72    6.73</time>
   <energy>
    <i name="e_fr_energy">   -103.50076033 </i>
    <i name="e_wo_entrp">   -103.50076033 </i>
    <i name="e_0_energy">   -103.50076033 </i>
   </energy>
  </scstep>
  <scstep>
   <time name="diag">    0.63    0.63</time>
   <time name="diis">    3.49    3.49</time>
   <time name="orth">    0.02    0.06</time>
   <time name="total">    6.85    6.89</time>
   <energy>
    <i name="e_fr_energy">   -103.49749736 </i>
    <i name="e_wo_entrp">   -103.49749736 </i>
    <i name="e_0_energy">   -103.49749736 </i>
   </energy>
  </scstep>
  <scstep>
   <time name="diag">    0.61    0.61</time>
   <time name="diis">    3.23    3.23</time>
   <time name="orth">    0.03    0.03</time>
   <time name="total">    6.57    6.57</time>
   <energy>
    <i name="e_fr_energy">   -103.50850849 </i>
    <i name="e_wo_entrp">   -103.50850849 </i>
    <i name="e_0_energy">   -103.50850849 </i>
   </energy>
  </scstep>
  <scstep>
   <time name="diag">    0.59    0.79</time>
   <time name="diis">    3.20    3.20</time>
   <time name="orth">    0.03    0.03</time>
   <time name="total">    6.43    6.85</time>
   <energy>
    <i name="e_fr_energy">   -103.50378370 </i>
    <i name="e_wo_entrp">   -103.50378370 </i>
    <i name="e_0_energy">   -103.50378370 </i>
   </energy>
  </scstep>
  <scstep>
   <time name="diag">    0.66    0.66</time>
   <time name="diis">    3.23    3.23</time>
   <time name="orth">    0.03    0.05</time>
   <time name="total">    6.55    6.59</time>
   <energy>
    <i name="e_fr_energy">   -103.50864844 </i>
    <i name="e_wo_entrp">   -103.50864844 </i>
    <i name="e_0_energy">   -103.50864844 </i>
   </energy>
  </scstep>
  <scstep>
   <time name="diag">    0.65    0.65</time>
   <time name="diis">    3.27    3.27</time>
   <time name="orth">    0.03    0.03</time>
   <time name="total">    6.70    6.70</time>
   <energy>
    <i name="e_fr_energy">   -103.51240429 </i>
    <i name="e_wo_entrp">   -103.51240429 </i>
    <i name="e_0_energy">   -103.51240429 </i>
   </energy>
  </scstep>
  <scstep>
   <time name="diag">    0.62    0.62</time>
   <time name="diis">    2.95    2.95</time>
   <time name="orth">    0.02    0.02</time>
   <time name="total">    6.40    6.40</time>
   <energy>
    <i name="e_fr_energy">   -103.52262819 </i>
    <i name="e_wo_entrp">   -103.52262819 </i>
    <i name="e_0_energy">   -103.52262819 </i>
   </energy>
  </scstep>
  <scstep>
   <time name="diag">    0.61    0.62</time>
   <time name="diis">    3.24    3.26</time>
   <time name="orth">    0.02    0.04</time>
   <time name="total">    6.44    6.59</time>
   <energy>
    <i name="e_fr_energy">   -103.52572990 </i>
    <i name="e_wo_entrp">   -103.52572990 </i>
    <i name="e_0_energy">   -103.52572990 </i>
   </energy>
  </scstep>
  <scstep>
   <time name="diag">    0.44    0.44</time>
   <time name="diis">    2.08    2.09</time>
   <time name="orth">    0.01    0.01</time>
   <time name="total">    4.59    4.64</time>
   <energy>
    <i name="e_fr_energy">   -103.52947419 </i>
    <i name="e_wo_entrp">   -103.52947419 </i>
    <i name="e_0_energy">   -103.52947419 </i>
   </energy>
  </scstep>
  <scstep>
   <time name="diag">    0.40    0.40</time>
   <time name="diis">    1.87    1.87</time>
   <time name="orth">    0.01    0.01</time>
   <time name="total">    4.07    4.07</time>
   <energy>
    <i name="e_fr_energy">   -103.53037307 </i>
    <i name="e_wo_entrp">   -103.53037307 </i>
    <i name="e_0_energy">   -103.53037307 </i>
   </energy>
  </scstep>
  <scstep>
   <time name="diag">    0.35    0.35</time>
   <time name="diis">    1.49    1.49</time>
   <time name="orth">    0.01    0.01</time>
   <time name="total">    3.55    3.55</time>
   <energy>
    <i name="e_fr_energy">   -103.53098477 </i>
    <i name="e_wo_entrp">   -103.53098477 </i>
    <i name="e_0_energy">   -103.53098477 </i>
   </energy>
  </scstep>
  <scstep>
   <time name="diag">    0.23    0.23</time>
   <time name="diis">    1.05    1.05</time>
   <time name="orth">    0.01    0.01</time>
   <time name="total">    2.83    2.84</time>
   <energy>
    <i name="e_fr_energy">   -103.53118992 </i>
    <i name="e_wo_entrp">   -103.53118992 </i>
    <i name="e_0_energy">   -103.53118992 </i>
   </energy>
  </scstep>
  <scstep>
   <time name="diag">    0.25    0.25</time>
   <time name="diis">    0.89    0.89</time>
   <time name="orth">    0.01    0.01</time>
   <time name="total">    2.44    2.44</time>
   <energy>
    <i name="e_fr_energy">   -103.53132159 </i>
    <i name="e_wo_entrp">   -103.53132159 </i>
    <i name="e_0_energy">   -103.53132159 </i>
   </energy>
  </scstep>
  <scstep>
   <time name="diag">    0.22    0.22</time>
   <time name="diis">    0.88    0.88</time>
   <time name="orth">    0.01    0.01</time>
   <time name="total">    2.40    2.40</time>
   <energy>
    <i name="e_fr_energy">   -103.53136248 </i>
    <i name="e_wo_entrp">   -103.53136248 </i>
    <i name="e_0_energy">   -103.53136248 </i>
   </energy>
  </scstep>
  <scstep>
   <time name="diag">    0.17    0.17</time>
   <time name="diis">    0.60    0.60</time>
   <time name="orth">    0.01    0.01</time>
   <time name="total">    1.83    1.83</time>
   <energy>
    <i name="e_fr_energy">   -103.53139148 </i>
    <i name="e_wo_entrp">   -103.53139148 </i>
    <i name="e_0_energy">   -103.53139148 </i>
   </energy>
  </scstep>
  <scstep>
   <time name="diag">    0.18    0.18</time>
   <time name="diis">    0.53    0.53</time>
   <time name="orth">    0.01    0.01</time>
   <time name="total">    1.58    1.58</time>
   <energy>
    <i name="alphaZ">      2.15216506 </i>
    <i name="ewald">   2584.85016000 </i>
    <i name="hartreedc">  -3716.71942423 </i>
    <i name="XCdc">    140.91653656 </i>
    <i name="pawpsdc">   3517.76251196 </i>
    <i name="pawaedc">  -3524.09543193 </i>
    <i name="eentropy">     -0.00000000 </i>
    <i name="bandstr">   -515.07118205 </i>
    <i name="atom">   1406.67326350 </i>
    <i name="e_fr_energy">   -103.53140112 </i>
    <i name="e_wo_entrp">   -103.53140112 </i>
    <i name="e_0_energy">   -103.53140112 </i>
   </energy>
  </scstep>
  <structure>
   <crystal>
    <varray name="basis" >
     <v>      15.40225029       0.00000000       0.00000000 </v>
     <v>       0.00000000      15.40225029       0.00000000 </v>
     <v>       0.00000000       0.00000000      15.40225029 </v>
    </varray>
    <i name="volume">   3653.86527022 </i>
    <varray name="rec_basis" >
     <v>       0.06492558       0.00000000       0.00000000 </v>
     <v>       0.00000000       0.06492558       0.00000000 </v>
     <v>       0.00000000       0.00000000       0.06492558 </v>
    </varray>
   </crystal>
   <varray name="positions" >
    <v>       0.33945137       0.43962330       0.56873454 </v>
    <v>       0.33738673       0.52644263       0.57369127 </v>
    <v>       0.41499189       0.58157966       0.55656210 </v>
    <v>       0.41675809       0.39023570       0.53803054 </v>
    <v>       0.49945239       0.44561821       0.53308998 </v>
    <v>       0.47822331       0.53465975       0.49540301 </v>
    <v>       0.55627352       0.58567291       0.48140143 </v>
    <v>       0.28152305       0.40201348       0.58372051 </v>
    <v>       0.42793015       0.33341481       0.57957794 </v>
    <v>       0.40500962       0.36315550       0.47315670 </v>
    <v>       0.27763313       0.55892747       0.59293144 </v>
    <v>       0.45130682       0.59543493       0.61622302 </v>
    <v>       0.39634088       0.64516320       0.53073510 </v>
    <v>       0.54928134       0.41278640       0.49444440 </v>
    <v>       0.52671980       0.45538599       0.59766860 </v>
    <v>       0.44653358       0.52569789       0.43243608 </v>
    <v>       0.61960660       0.62613637       0.47232078 </v>
   </varray>
  </structure>
  <varray name="forces" >
   <v>      -0.18379054       0.18682843      -0.25177367 </v>
   <v>      -0.13152514      -0.28790287       0.36136718 </v>
   <v>       0.15231984       0.22769360      -0.22797695 </v>
   <v>       0.51808414      -0.04101095       0.05787951 </v>
   <v>      -0.13392363      -0.40500739       0.02436851 </v>
   <v>       0.02811611       0.22861523      -0.03912398 </v>
   <v>       0.05312045       0.02129100      -0.02308007 </v>
   <v>      -0.19156306      -0.04572234      -0.00858472 </v>
   <v>       0.06952273      -0.11501511       0.12939739 </v>
   <v>      -0.25988546      -0.12821410      -0.21499822 </v>
   <v>      -0.10192819       0.07698197       0.13190577 </v>
   <v>      -0.04875225       0.09931294       0.34832437 </v>
   <v>      -0.04676900       0.11895649      -0.17769362 </v>
   <v>       0.09090566      -0.06731214      -0.10493024 </v>
   <v>       0.15090059       0.00286274       0.37179725 </v>
   <v>      -0.13799934       0.00042267      -0.33843854 </v>
   <v>       0.17316708       0.12721981      -0.03843996 </v>
  </varray>
  <varray name="stress" >
   <v>      -0.00226611       0.04156533      -0.00670632 </v>
   <v>       0.04156534       0.04584395      -0.00991707 </v>
   <v>      -0.00670632      -0.00991707      -0.02562794 </v>
  </varray>
  <energy>
   <i name="e_fr_energy">   -103.72967477 </i>
   <i name="e_wo_entrp">   -103.72967477 </i>
   <i name="e_0_energy">   -103.72967477 </i>
  </energy>
  <time name="totalsc">  126.59  127.36</time>
 </calculation>
 <calculation>
  <scstep>
   <time name="dav">    3.42    3.42</time>
   <time name="total">    6.00    6.01</time>
   <energy>
    <i name="alphaZ">      2.15216506 </i>
    <i name="ewald">   2581.45150615 </i>
    <i name="hartreedc">  -3714.00316953 </i>
    <i name="XCdc">    140.86867924 </i>
    <i name="pawpsdc">   3517.77128348 </i>
    <i name="pawaedc">  -3524.10425670 </i>
    <i name="eentropy">     -0.00000000 </i>
    <i name="bandstr">   -514.35422096 </i>
    <i name="atom">   1406.67326350 </i>
    <i name="e_fr_energy">   -103.54474976 </i>
    <i name="e_wo_entrp">   -103.54474976 </i>
    <i name="e_0_energy">   -103.54474976 </i>
   </energy>
  </scstep>
  <scstep>
   <time name="diag">    0.54    0.54</time>
   <time name="diis">    2.81    2.81</time>
   <time name="orth">    0.03    0.03</time>
   <time name="total">    5.90    5.90</time>
   <energy>
    <i name="e_fr_energy">   -103.54486772 </i>
    <i name="e_wo_entrp">   -103.54486772 </i>
    <i name="e_0_energy">   -103.54486772 </i>
   </energy>
  </scstep>
  <scstep>
   <time name="diag">    0.61    0.61</time>
   <time name="diis">    2.74    2.75</time>
   <time name="orth">    0.03    0.03</time>
   <time name="total">    5.97    6.00</time>
   <energy>
    <i name="e_fr_energy">   -103.54482250 </i>
    <i name="e_wo_entrp">   -103.54482250 </i>
    <i name="e_0_energy">   -103.54482250 </i>
   </energy>
  </scstep>
  <scstep>
   <time name="diag">    0.55    0.55</time>
   <time name="diis">    2.23    2.24</time>
   <time name="orth">    0.02    0.02</time>
   <time name="total">    5.19    5.21</time>
   <energy>
    <i name="e_fr_energy">   -103.54484524 </i>
    <i name="e_wo_entrp">   -103.54484524 </i>
    <i name="e_0_energy">   -103.54484524 </i>
   </energy>
  </scstep>
  <scstep>
   <time name="diag">    0.43    0.43</time>
   <time name="diis">    1.52    1.52</time>
   <time name="orth">    0.01    0.01</time>
   <time name="total">    3.53    3.53</time>
   <energy>
    <i name="alphaZ">      2.15216506 </i>
    <i name="ewald">   2581.45150615 </i>
    <i name="hartreedc">  -3713.52616691 </i>
    <i name="XCdc">    140.84724196 </i>
    <i name="pawpsdc">   3508.72772341 </i>
    <i name="pawaedc">  -3515.05454349 </i>
    <i name="eentropy">     -0.00000000 </i>
    <i name="bandstr">   -514.81604241 </i>
    <i name="atom">   1406.67326350 </i>
    <i name="e_fr_energy">   -103.54485274 </i>
    <i name="e_wo_entrp">   -103.54485274 </i>
    <i name="e_0_energy">   -103.54485274 </i>
   </energy>
  </scstep>
  <structure>
   <crystal>
    <varray name="basis" >
     <v>      15.40225029       0.00000000       0.00000000 </v>
     <v>       0.00000000      15.40225029       0.00000000 </v>
     <v>       0.00000000       0.00000000      15.40225029 </v>
    </varray>
    <i name="volume">   3653.86527022 </i>
    <varray name="rec_basis" >
     <v>       0.06492558       0.00000000       0.00000000 </v>
     <v>       0.00000000       0.06492558       0.00000000 </v>
     <v>       0.00000000       0.00000000       0.06492558 </v>
    </varray>
   </crystal>
   <varray name="positions" >
    <v>       0.33934077       0.43973741       0.56857930 </v>
    <v>       0.33730655       0.52625953       0.57391806 </v>
    <v>       0.41508687       0.58172385       0.55642084 </v>
    <v>       0.41708734       0.39020966       0.53806526 </v>
    <v>       0.49937741       0.44536589       0.53313741 </v>
    <v>       0.47825441       0.53480028       0.49539666 </v>
    <v>       0.55632117       0.58568505       0.48141469 </v>
    <v>       0.28140775       0.40198195       0.58371810 </v>
    <v>       0.42796430       0.33332343       0.57964142 </v>
    <v>       0.40486231       0.36309928       0.47300336 </v>
    <v>       0.27757076       0.55897128       0.59301513 </v>
    <v>       0.45126569       0.59551293       0.61644700 </v>
    <v>       0.39630821       0.64523414       0.53061254 </v>
    <v>       0.54936756       0.41274607       0.49443073 </v>
    <v>       0.52679698       0.45539486       0.59794799 </v>
    <v>       0.44647335       0.52568733       0.43223610 </v>
    <v>       0.61972942       0.62621660       0.47233154 </v>
   </varray>
  </structure>
  <varray name="forces" >
   <v>      -0.10340554      -0.10908241      -0.22430094 </v>
   <v>      -0.04162179       0.03781666       0.28399045 </v>
   <v>       0.07391279       0.13376542      -0.04792871 </v>
   <v>       0.22315328      -0.09645633      -0.02803511 </v>
   <v>       0.04213586      -0.19495414       0.09690602 </v>
   <v>      -0.01330990       0.08534165      -0.10385276 </v>
   <v>       0.21124549       0.11546285      -0.04802810 </v>
   <v>      -0.13837472      -0.02479977      -0.02997338 </v>
   <v>       0.06755889      -0.10037115       0.11947768 </v>
   <v>      -0.21125715      -0.08980062      -0.10524961 </v>
   <v>      -0.08256646       0.05666648       0.13127434 </v>
   <v>      -0.08690338       0.09110162       0.24228113 </v>
   <v>      -0.05457428       0.12796292      -0.17738673 </v>
   <v>       0.07606442      -0.05940884      -0.08540016 </v>
   <v>       0.09566813      -0.02465621       0.23585478 </v>
   <v>      -0.08583803       0.01883726      -0.24252082 </v>
   <v>       0.02811240       0.03257462      -0.01710808 </v>
  </varray>
  <varray name="stress" >
   <v>      -0.17936933       0.02659765      -0.04100141 </v>
   <v>       0.02659765       0.01290458      -0.00893670 </v>
   <v>      -0.04100141      -0.00893669      -0.23936859 </v>
  </varray>
  <energy>
   <i name="e_fr_energy">   -103.74314603 </i>
   <i name="e_wo_entrp">   -103.74314603 </i>
   <i name="e_0_energy">   -103.74314603 </i>
  </energy>
  <time name="totalsc">   37.17   37.23</time>
 </calculation>
 <calculation>
  <scstep>
   <time name="dav">    3.28    3.29</time>
   <time name="total">    5.85    5.86</time>
   <energy>
    <i name="alphaZ">      2.15216506 </i>
    <i name="ewald">   2577.17409773 </i>
    <i name="hartreedc">  -3709.84337224 </i>
    <i name="XCdc">    140.79498937 </i>
    <i name="pawpsdc">   3507.97849430 </i>
    <i name="pawaedc">  -3514.30530665 </i>
    <i name="eentropy">     -0.00000000 </i>
    <i name="bandstr">   -514.17827952 </i>
    <i name="atom">   1406.67326350 </i>
    <i name="e_fr_energy">   -103.55394844 </i>
    <i name="e_wo_entrp">   -103.55394844 </i>
    <i name="e_0_energy">   -103.55394844 </i>
   </energy>
  </scstep>
  <scstep>
   <time name="diag">    0.58    0.58</time>
   <time name="diis">    2.69    2.69</time>
   <time name="orth">    0.02    0.02</time>
   <time name="total">    5.91    5.91</time>
   <energy>
    <i name="e_fr_energy">   -103.55394780 </i>
    <i name="e_wo_entrp">   -103.55394780 </i>
    <i name="e_0_energy">   -103.55394780 </i>
   </energy>
  </scstep>
  <scstep>
   <time name="diag">    0.69    0.69</time>
   <time name="diis">    2.62    2.62</time>
   <time name="orth">    0.03    0.03</time>
   <time name="total">    5.97    5.98</time>
   <energy>
    <i name="e_fr_energy">   -103.55389709 </i>
    <i name="e_wo_entrp">   -103.55389709 </i>
    <i name="e_0_energy">   -103.55389709 </i>
   </energy>
  </scstep>
  <scstep>
   <time name="diag">    0.52    0.52</time>
   <time name="diis">    2.38    2.38</time>
   <time name="orth">    0.02    0.02</time>
   <time name="total">    5.08    5.09</time>
   <energy>
    <i name="e_fr_energy">   -103.55392054 </i>
    <i name="e_wo_entrp">   -103.55392054 </i>
    <i name="e_0_energy">   -103.55392054 </i>
   </energy>
  </scstep>
  <scstep>
   <time name="diag">    0.36    0.36</time>
   <time name="diis">    1.29    1.30</time>
   <time name="orth">    0.01    0.01</time>
   <time name="total">    3.12    3.13</time>
   <energy>
    <i name="alphaZ">      2.15216506 </i>
    <i name="ewald">   2577.17409773 </i>
    <i name="hartreedc">  -3709.47665611 </i>
    <i name="XCdc">    140.78422279 </i>
    <i name="pawpsdc">   3499.68788728 </i>
    <i name="pawaedc">  -3506.01168030 </i>
    <i name="eentropy">     -0.00000000 </i>
    <i name="bandstr">   -514.53722357 </i>
    <i name="atom">   1406.67326350 </i>
    <i name="e_fr_energy">   -103.55392363 </i>
    <i name="e_wo_entrp">   -103.55392363 </i>
    <i name="e_0_energy">   -103.55392363 </i>
   </energy>
  </scstep>
  <structure>
   <crystal>
    <varray name="basis" >
     <v>      15.40225029       0.00000000       0.00000000 </v>
     <v>       0.00000000      15.40225029       0.00000000 </v>
     <v>       0.00000000       0.00000000      15.40225029 </v>
    </varray>
    <i name="volume">   3653.86527022 </i>
    <varray name="rec_basis" >
     <v>       0.06492558       0.00000000       0.00000000 </v>
     <v>       0.00000000       0.06492558       0.00000000 </v>
     <v>       0.00000000       0.00000000       0.06492558 </v>
    </varray>
   </crystal>
   <varray name="positions" >
    <v>       0.33924925       0.43962981       0.56837017 </v>
    <v>       0.33727035       0.52629139       0.57418822 </v>
    <v>       0.41515614       0.58185301       0.55637754 </v>
    <v>       0.41730584       0.39011768       0.53803624 </v>
    <v>       0.49943037       0.44518298       0.53327649 </v>
    <v>       0.47826176       0.53487721       0.49532467 </v>
    <v>       0.55654244       0.58579270       0.48140936 </v>
    <v>       0.28128359       0.40195410       0.58369460 </v>
    <v>       0.42801421       0.33319914       0.57972790 </v>
    <v>       0.40468424       0.36305029       0.47287505 </v>
    <v>       0.27749474       0.55901843       0.59314172 </v>
    <v>       0.45116774       0.59562287       0.61668494 </v>
    <v>       0.39625108       0.64535016       0.53042744 </v>
    <v>       0.54948342       0.41269244       0.49442661 </v>
    <v>       0.52686174       0.45538214       0.59824061 </v>
    <v>       0.44643034       0.52568889       0.43202349 </v>
    <v>       0.61977706       0.62624825       0.47236575 </v>
   </varray>
  </structure>
  <varray name="forces" >
   <v>      -0.04678188       0.02291064      -0.16026436 </v>
   <v>       0.01956364      -0.06584348       0.18778133 </v>
   <v>       0.02707710       0.11128152       0.02667653 </v>
   <v>       0.05828875      -0.13513468      -0.04813893 </v>
   <v>       0.10500908      -0.05561282       0.07058454 </v>
   <v>       0.03870741       0.03045697      -0.09729430 </v>
   <v>      -0.15152552      -0.11508149      -0.00150400 </v>
   <v>      -0.11911412      -0.03077880      -0.04542592 </v>
   <v>       0.06034345      -0.07745671       0.09081086 </v>
   <v>      -0.16092944      -0.07523383      -0.04649628 </v>
   <v>      -0.07701025       0.05250448       0.13803726 </v>
   <v>      -0.09911629       0.09092914       0.16215447 </v>
   <v>      -0.04355702       0.09644029      -0.15198885 </v>
   <v>       0.06047859      -0.04808965      -0.05494168 </v>
   <v>       0.06434244      -0.03930535       0.15466605 </v>
   <v>      -0.04567711       0.02843816      -0.16874007 </v>
   <v>       0.30990117       0.20957563      -0.05591665 </v>
  </varray>
  <varray name="stress" >
   <v>      -0.20209471       0.10898500      -0.08286187 </v>
   <v>       0.10898500      -0.15493083      -0.00681639 </v>
   <v>      -0.08286187      -0.00681639      -0.41190609 </v>
  </varray>
  <energy>
   <i name="e_fr_energy">   -103.75228324 </i>
   <i name="e_wo_entrp">   -103.75228324 </i>
   <i name="e_0_energy">   -103.75228324 </i>
  </energy>
  <time name="totalsc">   37.77   37.94</time>
 </calculation>
 <calculation>
  <scstep>
   <time name="dav">    3.46    3.48</time>
   <time name="total">    6.19    6.21</time>
   <energy>
    <i name="alphaZ">      2.15216506 </i>
    <i name="ewald">   2574.19652435 </i>
    <i name="hartreedc">  -3707.14148689 </i>
    <i name="XCdc">    140.74364263 </i>
    <i name="pawpsdc">   3498.40632547 </i>
    <i name="pawaedc">  -3504.73011955 </i>
    <i name="eentropy">     -0.00000000 </i>
    <i name="bandstr">   -513.85836969 </i>
    <i name="atom">   1406.67326350 </i>
    <i name="e_fr_energy">   -103.55805512 </i>
    <i name="e_wo_entrp">   -103.55805512 </i>
    <i name="e_0_energy">   -103.55805512 </i>
   </energy>
  </scstep>
  <scstep>
   <time name="diag">    0.64    0.64</time>
   <time name="diis">    2.77    2.77</time>
   <time name="orth">    0.03    0.03</time>
   <time name="total">    6.11    6.11</time>
   <energy>
    <i name="e_fr_energy">   -103.55804675 </i>
    <i name="e_wo_entrp">   -103.55804675 </i>
    <i name="e_0_energy">   -103.55804675 </i>
   </energy>
  </scstep>
  <scstep>
   <time name="diag">    0.63    0.63</time>
   <time name="diis">    2.91    2.91</time>
   <time name="orth">    0.02    0.02</time>
   <time name="total">    6.34    6.34</time>
   <energy>
    <i name="e_fr_energy">   -103.55802856 </i>
    <i name="e_wo_entrp">   -103.55802856 </i>
    <i name="e_0_energy">   -103.55802856 </i>
   </energy>
  </scstep>
  <scstep>
   <time name="diag">    0.56    0.56</time>
   <time name="diis">    2.22    2.22</time>
   <time name="orth">    0.02    0.02</time>
   <time name="total">    5.15    5.15</time>
   <energy>
    <i name="e_fr_energy">   -103.55803861 </i>
    <i name="e_wo_entrp">   -103.55803861 </i>
    <i name="e_0_energy">   -103.55803861 </i>
   </energy>
  </scstep>
  <scstep>
   <time name="diag">    0.33    0.33</time>
   <time name="diis">    0.90    0.90</time>
   <time name="orth">    0.01    0.01</time>
   <time name="total">    2.75    2.75</time>
   <energy>
    <i name="alphaZ">      2.15216506 </i>
    <i name="ewald">   2574.19652435 </i>
    <i name="hartreedc">  -3706.67658380 </i>
    <i name="XCdc">    140.72324181 </i>
    <i name="pawpsdc">   3487.76508627 </i>
    <i name="pawaedc">  -3494.08170389 </i>
    <i name="eentropy">     -0.00000000 </i>
    <i name="bandstr">   -514.31003523 </i>
    <i name="atom">   1406.67326350 </i>
    <i name="e_fr_energy">   -103.55804194 </i>
    <i name="e_wo_entrp">   -103.55804194 </i>
    <i name="e_0_energy">   -103.55804194 </i>
   </energy>
  </scstep>
  <structure>
   <crystal>
    <varray name="basis" >
     <v>      15.40225029       0.00000000       0.00000000 </v>
     <v>       0.00000000      15.40225029       0.00000000 </v>
     <v>       0.00000000       0.00000000      15.40225029 </v>
    </varray>
    <i name="volume">   3653.86527022 </i>
    <varray name="rec_basis" >
     <v>       0.06492558       0.00000000       0.00000000 </v>
     <v>       0.00000000       0.06492558       0.00000000 </v>
     <v>       0.00000000       0.00000000       0.06492558 </v>
    </varray>
   </crystal>
   <varray name="positions" >
    <v>       0.33921503       0.43962046       0.56826172 </v>
    <v>       0.33727493       0.52626421       0.57432181 </v>
    <v>       0.41518001       0.58192778       0.55638367 </v>
    <v>       0.41737309       0.39003894       0.53800770 </v>
    <v>       0.49949436       0.44512711       0.53335511 </v>
    <v>       0.47829050       0.53490245       0.49527960 </v>
    <v>       0.55651895       0.58575633       0.48142661 </v>
    <v>       0.28121050       0.40193297       0.58367191 </v>
    <v>       0.42804408       0.33312817       0.57977193 </v>
    <v>       0.40458950       0.36302419       0.47281809 </v>
    <v>       0.27744710       0.55904772       0.59322858 </v>
    <v>       0.45109768       0.59569500       0.61680443 </v>
    <v>       0.39621848       0.64541215       0.53031730 </v>
    <v>       0.54955197       0.41266224       0.49443661 </v>
    <v>       0.52689025       0.45536674       0.59839472 </v>
    <v>       0.44641990       0.52569461       0.43191710 </v>
    <v>       0.61993947       0.62635164       0.47236902 </v>
   </varray>
  </structure>
  <varray name="forces" >
   <v>      -0.03807207      -0.00437160      -0.12984810 </v>
   <v>       0.02189082      -0.02905028       0.15435024 </v>
   <v>       0.00605788       0.09203103       0.04037684 </v>
   <v>       0.01693756      -0.11965371      -0.04444611 </v>
   <v>       0.10141554      -0.03156073       0.05105552 </v>
   <v>       0.00169312      -0.01098505      -0.07307820 </v>
   <v>       0.21495853       0.12147735      -0.06037283 </v>
   <v>      -0.09490803      -0.01881622      -0.05663250 </v>
   <v>       0.05333148      -0.06654880       0.07752918 </v>
   <v>      -0.13992560      -0.07360442      -0.03097459 </v>
   <v>      -0.05223449       0.03565860       0.13416360 </v>
   <v>      -0.09936522       0.09249271       0.13126539 </v>
   <v>      -0.03927182       0.07575543      -0.13619471 </v>
   <v>       0.05531033      -0.04109474      -0.03987283 </v>
   <v>       0.05247961      -0.04294148       0.12308195 </v>
   <v>      -0.03089814       0.02934016      -0.13433140 </v>
   <v>      -0.02939953      -0.00812825      -0.00607144 </v>
  </varray>
  <varray name="stress" >
   <v>      -0.40146097       0.03858260      -0.07047987 </v>
   <v>       0.03858260      -0.27982399       0.00938686 </v>
   <v>      -0.07047987       0.00938686      -0.49236661 </v>
  </varray>
  <energy>
   <i name="e_fr_energy">   -103.75640249 </i>
   <i name="e_wo_entrp">   -103.75640249 </i>
   <i name="e_0_energy">   -103.75640249 </i>
  </energy>
  <time name="totalsc">   36.21   36.26</time>
 </calculation>
 <calculation>
  <scstep>
   <time name="dav">    3.32    3.32</time>
   <time name="total">    6.00    6.00</time>
   <energy>
    <i name="alphaZ">      2.15216506 </i>
    <i name="ewald">   2572.75976257 </i>
    <i name="hartreedc">  -3705.38737800 </i>
    <i name="XCdc">    140.70730944 </i>
    <i name="pawpsdc">   3486.65421109 </i>
    <i name="pawaedc">  -3492.97061806 </i>
    <i name="eentropy">     -0.00000000 </i>
    <i name="bandstr">   -514.14920255 </i>
    <i name="atom">   1406.67326350 </i>
    <i name="e_fr_energy">   -103.56048694 </i>
    <i name="e_wo_entrp">   -103.56048694 </i>
    <i name="e_0_energy">   -103.56048694 </i>
   </energy>
  </scstep>
  <scstep>
   <time name="diag">    0.59    0.59</time>
   <time name="diis">    2.85    2.85</time>
   <time name="orth">    0.03    0.03</time>
   <time name="total">    6.08    6.08</time>
   <energy>
    <i name="e_fr_energy">   -103.56048095 </i>
    <i name="e_wo_entrp">   -103.56048095 </i>
    <i name="e_0_energy">   -103.56048095 </i>
   </energy>
  </scstep>
  <scstep>
   <time name="diag">    0.65    0.65</time>
   <time name="diis">    2.13    2.13</time>
   <time name="orth">    0.02    0.02</time>
   <time name="total">    4.89    4.89</time>
   <energy>
    <i name="alphaZ">      2.15216506 </i>
    <i name="ewald">   2572.75976257 </i>
    <i name="hartreedc">  -3705.30776073 </i>
    <i name="XCdc">    140.70674712 </i>
    <i name="pawpsdc">   3486.02693589 </i>
    <i name="pawaedc">  -3492.34317742 </i>
    <i name="eentropy">     -0.00000000 </i>
    <i name="bandstr">   -514.22841078 </i>
    <i name="atom">   1406.67326350 </i>
    <i name="e_fr_energy">   -103.56047479 </i>
    <i name="e_wo_entrp">   -103.56047479 </i>
    <i name="e_0_energy">   -103.56047479 </i>
   </energy>
  </scstep>
  <structure>
   <crystal>
    <varray name="basis" >
     <v>      15.40225029       0.00000000       0.00000000 </v>
     <v>       0.00000000      15.40225029       0.00000000 </v>
     <v>       0.00000000       0.00000000      15.40225029 </v>
    </varray>
    <i name="volume">   3653.86527022 </i>
    <varray name="rec_basis" >
     <v>       0.06492558       0.00000000       0.00000000 </v>
     <v>       0.00000000       0.06492558       0.00000000 </v>
     <v>       0.00000000       0.00000000       0.06492558 </v>
    </varray>
   </crystal>
   <varray name="positions" >
    <v>       0.33920294       0.43963069       0.56819460 </v>
    <v>       0.33729716       0.52623328       0.57440196 </v>
    <v>       0.41517696       0.58198070       0.55641804 </v>
    <v>       0.41736640       0.38996335       0.53797746 </v>
    <v>       0.49956936       0.44512659       0.53340871 </v>
    <v>       0.47830826       0.53488605       0.49525247 </v>
    <v>       0.55662413       0.58580569       0.48141748 </v>
    <v>       0.28116109       0.40191880       0.58363920 </v>
    <v>       0.42806672       0.33307467       0.57979852 </v>
    <v>       0.40452509       0.36300317       0.47279041 </v>
    <v>       0.27741862       0.55906422       0.59331059 </v>
    <v>       0.45102833       0.59576357       0.61687663 </v>
    <v>       0.39619323       0.64544982       0.53022992 </v>
    <v>       0.54960813       0.41264085       0.49446076 </v>
    <v>       0.52690230       0.45534554       0.59849699 </v>
    <v>       0.44642850       0.52570371       0.43185660 </v>
    <v>       0.61995934       0.62636310       0.47239024 </v>
   </varray>
  </structure>
  <varray name="forces" >
   <v>      -0.04902260      -0.05240072      -0.11159303 </v>
   <v>      -0.00065478       0.02449852       0.14710283 </v>
   <v>       0.00846174       0.07590773       0.01952962 </v>
   <v>       0.03342223      -0.08766935      -0.02939207 </v>
   <v>       0.06898257      -0.04824906       0.03187523 </v>
   <v>       0.02714819       0.01993918      -0.05549818 </v>
   <v>       0.04286215       0.01285141      -0.03609782 </v>
   <v>      -0.07566391      -0.00460679      -0.06360242 </v>
   <v>       0.04581174      -0.06013273       0.06891549 </v>
   <v>      -0.12998854      -0.07772708      -0.03503035 </v>
   <v>      -0.02570636       0.01791302       0.12746365 </v>
   <v>      -0.09177269       0.09513472       0.12352188 </v>
   <v>      -0.03696945       0.06058142      -0.12310519 </v>
   <v>       0.05572682      -0.03720521      -0.03327850 </v>
   <v>       0.05031954      -0.04166254       0.11138486 </v>
   <v>      -0.02338598       0.02880989      -0.11859473 </v>
   <v>       0.10042934       0.07401759      -0.02360125 </v>
  </varray>
  <varray name="stress" >
   <v>      -0.42275915       0.06260525      -0.07109034 </v>
   <v>       0.06260525      -0.30401952       0.00801232 </v>
   <v>      -0.07109034       0.00801232      -0.53196222 </v>
  </varray>
  <energy>
   <i name="e_fr_energy">   -103.75887191 </i>
   <i name="e_wo_entrp">   -103.75887191 </i>
   <i name="e_0_energy">   -103.75887191 </i>
  </energy>
  <time name="totalsc">   33.68   35.35</time>
 </calculation>
 <calculation>
  <scstep>
   <time name="dav">    2.10    2.45</time>
   <time name="total">    3.95    5.09</time>
   <energy>
    <i name="alphaZ">      2.15216506 </i>
    <i name="ewald">   2569.45135903 </i>
    <i name="hartreedc">  -3702.49246264 </i>
    <i name="XCdc">    140.66887644 </i>
    <i name="pawpsdc">   3485.54114458 </i>
    <i name="pawaedc">  -3491.85724666 </i>
    <i name="eentropy">     -0.00000000 </i>
    <i name="bandstr">   -513.70111977 </i>
    <i name="atom">   1406.67326350 </i>
    <i name="e_fr_energy">   -103.56402044 </i>
    <i name="e_wo_entrp">   -103.56402044 </i>
    <i name="e_0_energy">   -103.56402044 </i>
   </energy>
  </scstep>
  <scstep>
   <time name="diag">    0.31    0.50</time>
   <time name="diis">    1.72    2.79</time>
   <time name="orth">    0.02    0.03</time>
   <time name="total">    4.02    6.06</time>
   <energy>
    <i name="e_fr_energy">   -103.56407205 </i>
    <i name="e_wo_entrp">   -103.56407205 </i>
    <i name="e_0_energy">   -103.56407205 </i>
   </energy>
  </scstep>
  <scstep>
   <time name="diag">    0.43    0.54</time>
   <time name="diis">    1.59    2.21</time>
   <time name="orth">    0.01    0.01</time>
   <time name="total">    4.41    5.59</time>
   <energy>
    <i name="e_fr_energy">   -103.56407940 </i>
    <i name="e_wo_entrp">   -103.56407940 </i>
    <i name="e_0_energy">   -103.56407940 </i>
   </energy>
  </scstep>
  <scstep>
   <time name="diag">    0.43    0.47</time>
   <time name="diis">    1.86    1.91</time>
   <time name="orth">    0.01    0.01</time>
   <time name="total">    4.59    5.68</time>
   <energy>
    <i name="e_fr_energy">   -103.56409127 </i>
    <i name="e_wo_entrp">   -103.56409127 </i>
    <i name="e_0_energy">   -103.56409127 </i>
   </energy>
  </scstep>
  <scstep>
   <time name="diag">    0.21    0.31</time>
   <time name="diis">    0.72    0.85</time>
   <time name="orth">    0.02    0.03</time>
   <time name="total">    2.56    3.09</time>
   <energy>
    <i name="alphaZ">      2.15216506 </i>
    <i name="ewald">   2569.45135903 </i>
    <i name="hartreedc">  -3702.16519700 </i>
    <i name="XCdc">    140.65671846 </i>
    <i name="pawpsdc">   3476.30235964 </i>
    <i name="pawaedc">  -3482.61382909 </i>
    <i name="eentropy">     -0.00000000 </i>
    <i name="bandstr">   -514.02093399 </i>
    <i name="atom">   1406.67326350 </i>
    <i name="e_fr_energy">   -103.56409439 </i>
    <i name="e_wo_entrp">   -103.56409439 </i>
    <i name="e_0_energy">   -103.56409439 </i>
   </energy>
  </scstep>
  <structure>
   <crystal>
    <varray name="basis" >
     <v>      15.40225029       0.00000000       0.00000000 </v>
     <v>       0.00000000      15.40225029       0.00000000 </v>
     <v>       0.00000000       0.00000000      15.40225029 </v>
    </varray>
    <i name="volume">   3653.86527022 </i>
    <varray name="rec_basis" >
     <v>       0.06492558       0.00000000       0.00000000 </v>
     <v>       0.00000000       0.06492558       0.00000000 </v>
     <v>       0.00000000       0.00000000       0.06492558 </v>
    </varray>
   </crystal>
   <varray name="positions" >
    <v>       0.33916673       0.43955721       0.56810184 </v>
    <v>       0.33732276       0.52628279       0.57454369 </v>
    <v>       0.41514122       0.58206112       0.55649555 </v>
    <v>       0.41729923       0.38983765       0.53792906 </v>
    <v>       0.49970818       0.44514814       0.53347317 </v>
    <v>       0.47839706       0.53486311       0.49523998 </v>
    <v>       0.55671098       0.58582132       0.48140392 </v>
    <v>       0.28109983       0.40192469       0.58351719 </v>
    <v>       0.42810457       0.33296635       0.57983403 </v>
    <v>       0.40440273       0.36293482       0.47274195 </v>
    <v>       0.27742951       0.55905055       0.59351694 </v>
    <v>       0.45085662       0.59595433       0.61700066 </v>
    <v>       0.39613785       0.64548820       0.53004829 </v>
    <v>       0.54974502       0.41260114       0.49455071 </v>
    <v>       0.52691433       0.45528096       0.59868115 </v>
    <v>       0.44648838       0.52573395       0.43177991 </v>
    <v>       0.62010268       0.62645009       0.47242844 </v>
   </varray>
  </structure>
  <varray name="forces" >
   <v>      -0.03340753       0.06492136      -0.08650111 </v>
   <v>      -0.00325497      -0.09167369       0.11527082 </v>
   <v>       0.03328354       0.06696882      -0.03415021 </v>
   <v>       0.10739098      -0.03978288      -0.01118902 </v>
   <v>      -0.00925252      -0.10003614       0.03247775 </v>
   <v>      -0.00179354       0.04702134      -0.02494079 </v>
   <v>       0.13631708       0.07853052      -0.04309945 </v>
   <v>      -0.08644949      -0.01225077      -0.06024003 </v>
   <v>       0.03392743      -0.04134166       0.05030834 </v>
   <v>      -0.11507214      -0.08148676      -0.03671960 </v>
   <v>      -0.02459008       0.01742958       0.12688405 </v>
   <v>      -0.07830947       0.09792088       0.11330449 </v>
   <v>      -0.03168469       0.03382303      -0.10328548 </v>
   <v>       0.05109166      -0.03190863      -0.02624276 </v>
   <v>       0.03930744      -0.04038015       0.08378479 </v>
   <v>      -0.01172380       0.02639513      -0.08458237 </v>
   <v>      -0.00577991       0.00584999      -0.01107942 </v>
  </varray>
  <varray name="stress" >
   <v>      -0.53654909       0.03066001      -0.05884239 </v>
   <v>       0.03066001      -0.44100570       0.01150536 </v>
   <v>      -0.05884239       0.01150536      -0.59192081 </v>
  </varray>
  <energy>
   <i name="e_fr_energy">   -103.76250971 </i>
   <i name="e_wo_entrp">   -103.76250971 </i>
   <i name="e_0_energy">   -103.76250971 </i>
  </energy>
  <time name="totalsc">   37.32   46.40</time>
 </calculation>
 <calculation>
  <scstep>
   <time name="dav">    2.10    2.24</time>
   <time name="total">    3.82    4.35</time>
   <energy>
    <i name="alphaZ">      2.15216506 </i>
    <i name="ewald">   2564.96024631 </i>
    <i name="hartreedc">  -3698.28900715 </i>
    <i name="XCdc">    140.60707938 </i>
    <i name="pawpsdc">   3474.92908382 </i>
    <i name="pawaedc">  -3481.24052224 </i>
    <i name="eentropy">     -0.00000000 </i>
    <i name="bandstr">   -513.36166625 </i>
    <i name="atom">   1406.67326350 </i>
    <i name="e_fr_energy">   -103.56935758 </i>
    <i name="e_wo_entrp">   -103.56935758 </i>
    <i name="e_0_energy">   -103.56935758 </i>
   </energy>
  </scstep>
  <scstep>
   <time name="diag">    0.53    0.66</time>
   <time name="diis">    1.80    2.51</time>
   <time name="orth">    0.01    0.01</time>
   <time name="total">    4.29    5.61</time>
   <energy>
    <i name="e_fr_energy">   -103.56939344 </i>
    <i name="e_wo_entrp">   -103.56939344 </i>
    <i name="e_0_energy">   -103.56939344 </i>
   </energy>
  </scstep>
  <scstep>
   <time name="diag">    0.37    0.42</time>
   <time name="diis">    2.05    2.87</time>
   <time name="orth">    0.03    0.04</time>
   <time name="total">    4.57    5.60</time>
   <energy>
    <i name="e_fr_energy">   -103.56940694 </i>
    <i name="e_wo_entrp">   -103.56940694 </i>
    <i name="e_0_energy">   -103.56940694 </i>
   </energy>
  </scstep>
  <scstep>
   <time name="diag">    0.30    0.34</time>
   <time name="diis">    1.91    2.01</time>
   <time name="orth">    0.02    0.02</time>
   <time name="total">    4.27    5.02</time>
   <energy>
    <i name="e_fr_energy">   -103.56943303 </i>
    <i name="e_wo_entrp">   -103.56943303 </i>
    <i name="e_0_energy">   -103.56943303 </i>
   </energy>
  </scstep>
  <scstep>
   <time name="diag">    0.31    0.31</time>
   <time name="diis">    1.57    2.19</time>
   <time name="orth">    0.01    0.01</time>
   <time name="total">    4.01    4.72</time>
   <energy>
    <i name="alphaZ">      2.15216506 </i>
    <i name="ewald">   2564.96024631 </i>
    <i name="hartreedc">  -3697.93554968 </i>
    <i name="XCdc">    140.59509677 </i>
    <i name="pawpsdc">   3465.96223020 </i>
    <i name="pawaedc">  -3472.26967894 </i>
    <i name="eentropy">     -0.00000000 </i>
    <i name="bandstr">   -513.70721035 </i>
    <i name="atom">   1406.67326350 </i>
    <i name="e_fr_energy">   -103.56943713 </i>
    <i name="e_wo_entrp">   -103.56943713 </i>
    <i name="e_0_energy">   -103.56943713 </i>
   </energy>
  </scstep>
  <structure>
   <crystal>
    <varray name="basis" >
     <v>      15.40225029       0.00000000       0.00000000 </v>
     <v>       0.00000000      15.40225029       0.00000000 </v>
     <v>       0.00000000       0.00000000      15.40225029 </v>
    </varray>
    <i name="volume">   3653.86527022 </i>
    <varray name="rec_basis" >
     <v>       0.06492558       0.00000000       0.00000000 </v>
     <v>       0.00000000       0.06492558       0.00000000 </v>
     <v>       0.00000000       0.00000000       0.06492558 </v>
    </varray>
   </crystal>
   <varray name="positions" >
    <v>       0.33911229       0.43960162       0.56794867 </v>
    <v>       0.33735868       0.52619123       0.57478171 </v>
    <v>       0.41512543       0.58220690       0.55654331 </v>
    <v>       0.41731902       0.38967554       0.53786810 </v>
    <v>       0.49983635       0.44508307       0.53359037 </v>
    <v>       0.47851905       0.53488368       0.49524814 </v>
    <v>       0.55693553       0.58590278       0.48136892 </v>
    <v>       0.28095461       0.40192169       0.58329561 </v>
    <v>       0.42816478       0.33279469       0.57988736 </v>
    <v>       0.40417585       0.36278609       0.47264526 </v>
    <v>       0.27744239       0.55903206       0.59390604 </v>
    <v>       0.45055984       0.59631145       0.61723495 </v>
    <v>       0.39604071       0.64552992       0.52973398 </v>
    <v>       0.54998607       0.41253013       0.49469963 </v>
    <v>       0.52693490       0.45516031       0.59898270 </v>
    <v>       0.44659894       0.52579107       0.43166456 </v>
    <v>       0.62027943       0.62655848       0.47249244 </v>
   </varray>
  </structure>
  <varray name="forces" >
   <v>      -0.01923866      -0.07620248      -0.05984000 </v>
   <v>      -0.01044685       0.05313478       0.08174051 </v>
   <v>       0.03721061       0.02449777      -0.04140330 </v>
   <v>       0.09437005      -0.00296198      -0.01094678 </v>
   <v>      -0.02491432      -0.10010759       0.02470977 </v>
   <v>       0.00241535       0.05980370      -0.00459895 </v>
   <v>       0.02646495       0.01146650      -0.01173836 </v>
   <v>      -0.05202866       0.00971778      -0.06643649 </v>
   <v>       0.01438248      -0.00934347       0.02546992 </v>
   <v>      -0.08055100      -0.06918267      -0.00646665 </v>
   <v>       0.01134991      -0.00851552       0.11266016 </v>
   <v>      -0.06855454       0.09516730       0.06880747 </v>
   <v>      -0.03292914       0.00504445      -0.07858192 </v>
   <v>       0.02902680      -0.01714405      -0.00753474 </v>
   <v>       0.01425500      -0.04263455       0.02740158 </v>
   <v>       0.00845221       0.02655040      -0.03097722 </v>
   <v>       0.05073581       0.04070961      -0.02226501 </v>
  </varray>
  <varray name="stress" >
   <v>      -0.67796032       0.03766662      -0.05172775 </v>
   <v>       0.03766662      -0.53166085       0.01494768 </v>
   <v>      -0.05172775       0.01494768      -0.73303463 </v>
  </varray>
  <energy>
   <i name="e_fr_energy">   -103.76788337 </i>
   <i name="e_wo_entrp">   -103.76788337 </i>
   <i name="e_0_energy">   -103.76788337 </i>
  </energy>
  <time name="totalsc">   40.85   49.04</time>
 </calculation>
 <calculation>
  <scstep>
   <time name="dav">    3.23    3.59</time>
   <time name="total">    6.26    7.30</time>
   <energy>
    <i name="alphaZ">      2.15216506 </i>
    <i name="ewald">   2563.30134680 </i>
    <i name="hartreedc">  -3696.53180725 </i>
    <i name="XCdc">    140.57546285 </i>
    <i name="pawpsdc">   3465.86708116 </i>
    <i name="pawaedc">  -3472.17425947 </i>
    <i name="eentropy">     -0.00000000 </i>
    <i name="bandstr">   -513.43431176 </i>
    <i name="atom">   1406.67326350 </i>
    <i name="e_fr_energy">   -103.57105911 </i>
    <i name="e_wo_entrp">   -103.57105911 </i>
    <i name="e_0_energy">   -103.57105911 </i>
   </energy>
  </scstep>
  <scstep>
   <time name="diag">    0.46    0.95</time>
   <time name="diis">    2.22    2.45</time>
   <time name="orth">    0.02    0.02</time>
   <time name="total">    5.57    6.59</time>
   <energy>
    <i name="e_fr_energy">   -103.57106912 </i>
    <i name="e_wo_entrp">   -103.57106912 </i>
    <i name="e_0_energy">   -103.57106912 </i>
   </energy>
  </scstep>
  <scstep>
   <time name="diag">    0.38    0.43</time>
   <time name="diis">    2.30    2.72</time>
   <time name="orth">    0.03    0.05</time>
   <time name="total">    5.37    6.83</time>
   <energy>
    <i name="e_fr_energy">   -103.57107299 </i>
    <i name="e_wo_entrp">   -103.57107299 </i>
    <i name="e_0_energy">   -103.57107299 </i>
   </energy>
  </scstep>
  <scstep>
   <time name="diag">    0.20    0.54</time>
   <time name="diis">    1.59    1.93</time>
   <time name="orth">    0.01    0.03</time>
   <time name="total">    3.03    4.65</time>
   <energy>
    <i name="alphaZ">      2.15216506 </i>
    <i name="ewald">   2563.30134680 </i>
    <i name="hartreedc">  -3696.31111816 </i>
    <i name="XCdc">    140.56635990 </i>
    <i name="pawpsdc">   3461.63110380 </i>
    <i name="pawaedc">  -3467.93521140 </i>
    <i name="eentropy">     -0.00000000 </i>
    <i name="bandstr">   -513.64898710 </i>
    <i name="atom">   1406.67326350 </i>
    <i name="e_fr_energy">   -103.57107761 </i>
    <i name="e_wo_entrp">   -103.57107761 </i>
    <i name="e_0_energy">   -103.57107761 </i>
   </energy>
  </scstep>
  <structure>
   <crystal>
    <varray name="basis" >
     <v>      15.40225029       0.00000000       0.00000000 </v>
     <v>       0.00000000      15.40225029       0.00000000 </v>
     <v>       0.00000000       0.00000000      15.40225029 </v>
    </varray>
    <i name="volume">   3653.86527022 </i>
    <varray name="rec_basis" >
     <v>       0.06492558       0.00000000       0.00000000 </v>
     <v>       0.00000000       0.06492558       0.00000000 </v>
     <v>       0.00000000       0.00000000       0.06492558 </v>
    </varray>
   </crystal>
   <varray name="positions" >
    <v>       0.33909612       0.43957250       0.56790038 </v>
    <v>       0.33736717       0.52620388       0.57486220 </v>
    <v>       0.41512704       0.58224589       0.55654601 </v>
    <v>       0.41733856       0.38963621       0.53784743 </v>
    <v>       0.49986151       0.44504041       0.53362532 </v>
    <v>       0.47856599       0.53490970       0.49526296 </v>
    <v>       0.55697219       0.58590574       0.48136145 </v>
    <v>       0.28090540       0.40193174       0.58319513 </v>
    <v>       0.42818167       0.33274726       0.57990050 </v>
    <v>       0.40409225       0.36271730       0.47262393 </v>
    <v>       0.27746728       0.55901146       0.59406735 </v>
    <v>       0.45044270       0.59646081       0.61731113 </v>
    <v>       0.39600027       0.64552861       0.52961833 </v>
    <v>       0.55006867       0.41250718       0.49475691 </v>
    <v>       0.52693554       0.45510452       0.59906340 </v>
    <v>       0.44665057       0.52581941       0.43164445 </v>
    <v>       0.62037437       0.62661950       0.47250291 </v>
   </varray>
  </structure>
  <varray name="forces" >
   <v>      -0.00950929      -0.03376375      -0.04871898 </v>
   <v>       0.00084157       0.01205667       0.06262919 </v>
   <v>       0.03301777       0.02492361      -0.03315319 </v>
   <v>       0.07732670      -0.00903926      -0.01475324 </v>
   <v>      -0.01771832      -0.08371796       0.01996561 </v>
   <v>      -0.01060402       0.03801037       0.00173800 </v>
   <v>       0.14461808       0.08867391      -0.02102514 </v>
   <v>      -0.05150669       0.00566199      -0.06390333 </v>
   <v>       0.01058991       0.00028456       0.01774081 </v>
   <v>      -0.06702958      -0.06315771       0.00483067 </v>
   <v>       0.00897097      -0.00567151       0.11121079 </v>
   <v>      -0.06459452       0.09285875       0.05176946 </v>
   <v>      -0.03112857      -0.00295168      -0.07187370 </v>
   <v>       0.02116318      -0.01352338      -0.00330007 </v>
   <v>       0.00720883      -0.04308767       0.01343938 </v>
   <v>       0.01216105       0.02610653      -0.01849340 </v>
   <v>      -0.06380708      -0.03366345      -0.00810285 </v>
  </varray>
  <varray name="stress" >
   <v>      -0.74321675       0.01324529      -0.04547717 </v>
   <v>       0.01324529      -0.59798019       0.02094778 </v>
   <v>      -0.04547717       0.02094778      -0.76177724 </v>
  </varray>
  <energy>
   <i name="e_fr_energy">   -103.76950726 </i>
   <i name="e_wo_entrp">   -103.76950726 </i>
   <i name="e_0_energy">   -103.76950726 </i>
  </energy>
  <time name="totalsc">   37.71   48.44</time>
 </calculation>
 <calculation>
  <scstep>
   <time name="dav">    1.72    2.39</time>
   <time name="total">    3.09    4.59</time>
   <energy>
    <i name="alphaZ">      2.15216506 </i>
    <i name="ewald">   2561.37281179 </i>
    <i name="hartreedc">  -3694.57680427 </i>
    <i name="XCdc">    140.54817960 </i>
    <i name="pawpsdc">   3460.87465412 </i>
    <i name="pawaedc">  -3467.17885772 </i>
    <i name="eentropy">     -0.00000000 </i>
    <i name="bandstr">   -513.43853127 </i>
    <i name="atom">   1406.67326350 </i>
    <i name="e_fr_energy">   -103.57311918 </i>
    <i name="e_wo_entrp">   -103.57311918 </i>
    <i name="e_0_energy">   -103.57311918 </i>
   </energy>
  </scstep>
  <scstep>
   <time name="diag">    0.30    0.45</time>
   <time name="diis">    1.82    2.67</time>
   <time name="orth">    0.01    0.03</time>
   <time name="total">    3.79    5.51</time>
   <energy>
    <i name="e_fr_energy">   -103.57311554 </i>
    <i name="e_wo_entrp">   -103.57311554 </i>
    <i name="e_0_energy">   -103.57311554 </i>
   </energy>
  </scstep>
  <scstep>
   <time name="diag">    0.26    0.27</time>
   <time name="diis">    1.90    1.95</time>
   <time name="orth">    0.01    0.01</time>
   <time name="total">    3.73    4.33</time>
   <energy>
    <i name="e_fr_energy">   -103.57311245 </i>
    <i name="e_wo_entrp">   -103.57311245 </i>
    <i name="e_0_energy">   -103.57311245 </i>
   </energy>
  </scstep>
  <scstep>
   <time name="diag">    0.42    0.43</time>
   <time name="diis">    2.10    2.36</time>
   <time name="orth">    0.04    0.04</time>
   <time name="total">    4.28    4.75</time>
   <energy>
    <i name="alphaZ">      2.15216506 </i>
    <i name="ewald">   2561.37281179 </i>
    <i name="hartreedc">  -3694.46115391 </i>
    <i name="XCdc">    140.54654195 </i>
    <i name="pawpsdc">   3458.91879752 </i>
    <i name="pawaedc">  -3465.22258420 </i>
    <i name="eentropy">     -0.00000000 </i>
    <i name="bandstr">   -513.55296183 </i>
    <i name="atom">   1406.67326350 </i>
    <i name="e_fr_energy">   -103.57312011 </i>
    <i name="e_wo_entrp">   -103.57312011 </i>
    <i name="e_0_energy">   -103.57312011 </i>
   </energy>
  </scstep>
  <structure>
   <crystal>
    <varray name="basis" >
     <v>      15.40225029       0.00000000       0.00000000 </v>
     <v>       0.00000000      15.40225029       0.00000000 </v>
     <v>       0.00000000       0.00000000      15.40225029 </v>
    </varray>
    <i name="volume">   3653.86527022 </i>
    <varray name="rec_basis" >
     <v>       0.06492558       0.00000000       0.00000000 </v>
     <v>       0.00000000       0.06492558       0.00000000 </v>
     <v>       0.00000000       0.00000000       0.06492558 </v>
    </varray>
   </crystal>
   <varray name="positions" >
    <v>       0.33907246       0.43953477       0.56781625 </v>
    <v>       0.33738036       0.52621036       0.57498679 </v>
    <v>       0.41514266       0.58230845       0.55654186 </v>
    <v>       0.41739182       0.38957594       0.53781398 </v>
    <v>       0.49989644       0.44496166       0.53368159 </v>
    <v>       0.47860823       0.53494496       0.49527287 </v>
    <v>       0.55712763       0.58597915       0.48134150 </v>
    <v>       0.28082392       0.40193976       0.58306480 </v>
    <v>       0.42820722       0.33268824       0.57992622 </v>
    <v>       0.40396869       0.36262097       0.47259699 </v>
    <v>       0.27748755       0.55899381       0.59428905 </v>
    <v>       0.45028667       0.59666082       0.61742465 </v>
    <v>       0.39594172       0.64553525       0.52945479 </v>
    <v>       0.55017158       0.41247433       0.49481830 </v>
    <v>       0.52694166       0.45502845       0.59917560 </v>
    <v>       0.44670736       0.52585886       0.43160143 </v>
    <v>       0.62041508       0.62664800       0.47251999 </v>
   </varray>
  </structure>
  <varray name="forces" >
   <v>       0.00419526       0.00927490      -0.02889825 </v>
   <v>       0.01473763      -0.02505652       0.03304157 </v>
   <v>       0.02030842       0.02022258      -0.01648472 </v>
   <v>       0.03511972      -0.01659099      -0.01675939 </v>
   <v>      -0.00563907      -0.04273174       0.00306445 </v>
   <v>       0.02481955       0.03070483       0.00813655 </v>
   <v>      -0.08290514      -0.05616759       0.01923532 </v>
   <v>      -0.04182666       0.00457184      -0.06415944 </v>
   <v>       0.00522237       0.00997281       0.00813988 </v>
   <v>      -0.04596789      -0.05616165       0.01883350 </v>
   <v>       0.01337068      -0.00737512       0.10712905 </v>
   <v>      -0.05955499       0.08991148       0.02457513 </v>
   <v>      -0.02888683      -0.01445663      -0.06138321 </v>
   <v>       0.01189161      -0.00950349       0.00325531 </v>
   <v>      -0.00240061      -0.04462805      -0.00512067 </v>
   <v>       0.02048649       0.02701707       0.00193640 </v>
   <v>       0.11702946       0.08099626      -0.03454149 </v>
  </varray>
  <varray name="stress" >
   <v>      -0.73399335       0.05800928      -0.05370424 </v>
   <v>       0.05800928      -0.65832221       0.02113081 </v>
   <v>      -0.05370424       0.02113081      -0.81794232 </v>
  </varray>
  <energy>
   <i name="e_fr_energy">   -103.77155573 </i>
   <i name="e_wo_entrp">   -103.77155573 </i>
   <i name="e_0_energy">   -103.77155573 </i>
  </energy>
  <time name="totalsc">   32.76   43.88</time>
 </calculation>
 <calculation>
  <scstep>
   <time name="dav">    2.06    3.78</time>
   <time name="total">    3.65    5.52</time>
   <energy>
    <i name="alphaZ">      2.15216506 </i>
    <i name="ewald">   2560.29481922 </i>
    <i name="hartreedc">  -3693.63596047 </i>
    <i name="XCdc">    140.53367158 </i>
    <i name="pawpsdc">   3458.26648025 </i>
    <i name="pawaedc">  -3464.57036915 </i>
    <i name="eentropy">     -0.00000000 </i>
    <i name="bandstr">   -513.28817803 </i>
    <i name="atom">   1406.67326350 </i>
    <i name="e_fr_energy">   -103.57410804 </i>
    <i name="e_wo_entrp">   -103.57410804 </i>
    <i name="e_0_energy">   -103.57410804 </i>
   </energy>
  </scstep>
  <scstep>
   <time name="diag">    0.24    0.24</time>
   <time name="diis">    1.53    1.77</time>
   <time name="orth">    0.01    0.01</time>
   <time name="total">    3.32    3.82</time>
   <energy>
    <i name="e_fr_energy">   -103.57411545 </i>
    <i name="e_wo_entrp">   -103.57411545 </i>
    <i name="e_0_energy">   -103.57411545 </i>
   </energy>
  </scstep>
  <scstep>
   <time name="diag">    0.21    0.35</time>
   <time name="diis">    1.85    2.07</time>
   <time name="orth">    0.01    0.01</time>
   <time name="total">    3.22    4.44</time>
   <energy>
    <i name="alphaZ">      2.15216506 </i>
    <i name="ewald">   2560.29481922 </i>
    <i name="hartreedc">  -3693.48388215 </i>
[...]
    <v>       0.41478461       0.58288054       0.55593499 </v>
    <v>       0.41652273       0.38905462       0.53669209 </v>
    <v>       0.49919819       0.44418415       0.53066071 </v>
    <v>       0.47817643       0.53533249       0.49458649 </v>
    <v>       0.55679580       0.58619245       0.48008086 </v>
    <v>       0.27993132       0.40255716       0.58132397 </v>
    <v>       0.42796032       0.33405003       0.58115630 </v>
    <v>       0.40186934       0.35892225       0.47318365 </v>
    <v>       0.27941098       0.55844960       0.59998506 </v>
    <v>       0.44944268       0.60149446       0.61594486 </v>
    <v>       0.39324083       0.64415664       0.52603825 </v>
    <v>       0.54800732       0.41206027       0.48964875 </v>
    <v>       0.52840055       0.45217761       0.59547271 </v>
    <v>       0.44589819       0.52767839       0.43091380 </v>
    <v>       0.61987190       0.62693619       0.46951539 </v>
   </varray>
  </structure>
  <varray name="forces" >
   <v>       0.00173725      -0.00105825       0.00407156 </v>
   <v>       0.00272758      -0.00143417       0.00721988 </v>
   <v>      -0.00389196       0.00239229      -0.00647644 </v>
   <v>      -0.00186676      -0.00019198      -0.00726060 </v>
   <v>      -0.00027991      -0.00148085       0.00116243 </v>
   <v>       0.00056165      -0.00160732      -0.00043641 </v>
   <v>       0.01068540       0.00439075       0.00192890 </v>
   <v>       0.00295827      -0.00126542       0.00912030 </v>
   <v>      -0.00377087      -0.00808894      -0.01272714 </v>
   <v>      -0.00264084       0.00948282      -0.01025348 </v>
   <v>       0.00567992      -0.00249414       0.01547809 </v>
   <v>      -0.00373037       0.01691933      -0.00743085 </v>
   <v>      -0.00961323      -0.00616909      -0.01507129 </v>
   <v>       0.00501094      -0.00022163       0.00628922 </v>
   <v>      -0.00541425      -0.00118858       0.00793811 </v>
   <v>       0.00583164      -0.00281129      -0.00049455 </v>
   <v>      -0.00398448      -0.00517352       0.00694225 </v>
  </varray>
  <varray name="stress" >
   <v>      -0.85293155       0.00680038      -0.00626041 </v>
   <v>       0.00680038      -0.83182840       0.01083458 </v>
   <v>      -0.00626041       0.01083457      -0.84533900 </v>
  </varray>
  <energy>
   <i name="e_fr_energy">   -103.78954548 </i>
   <i name="e_wo_entrp">   -103.78954548 </i>
   <i name="e_0_energy">   -103.78954548 </i>
  </energy>
  <time name="totalsc">   19.98   28.96</time>
 </calculation>
 <calculation>
  <scstep>
   <time name="dav">    2.01    2.91</time>
   <time name="total">    4.64    6.69</time>
   <energy>
    <i name="alphaZ">      2.15216506 </i>
    <i name="ewald">   2552.56487691 </i>
    <i name="hartreedc">  -3685.88587037 </i>
    <i name="XCdc">    140.50061784 </i>
    <i name="pawpsdc">   3450.33386667 </i>
    <i name="pawaedc">  -3456.63351147 </i>
    <i name="eentropy">     -0.00000000 </i>
    <i name="bandstr">   -513.29774489 </i>
    <i name="atom">   1406.67326350 </i>
    <i name="e_fr_energy">   -103.59233676 </i>
    <i name="e_wo_entrp">   -103.59233676 </i>
    <i name="e_0_energy">   -103.59233676 </i>
   </energy>
  </scstep>
  <scstep>
   <time name="diag">    0.29    0.30</time>
   <time name="diis">    1.13    2.16</time>
   <time name="orth">    0.01    0.01</time>
   <time name="total">    3.08    4.14</time>
   <energy>
    <i name="alphaZ">      2.15216506 </i>
    <i name="ewald">   2552.56487691 </i>
    <i name="hartreedc">  -3685.89087921 </i>
    <i name="XCdc">    140.50098370 </i>
    <i name="pawpsdc">   3450.36934631 </i>
    <i name="pawaedc">  -3456.66907714 </i>
    <i name="eentropy">     -0.00000000 </i>
    <i name="bandstr">   -513.29301946 </i>
    <i name="atom">   1406.67326350 </i>
    <i name="e_fr_energy">   -103.59234033 </i>
    <i name="e_wo_entrp">   -103.59234033 </i>
    <i name="e_0_energy">   -103.59234033 </i>
   </energy>
  </scstep>
  <structure>
   <crystal>
    <varray name="basis" >
     <v>      15.40225029       0.00000000       0.00000000 </v>
     <v>       0.00000000      15.40225029       0.00000000 </v>
     <v>       0.00000000       0.00000000      15.40225029 </v>
    </varray>
    <i name="volume">   3653.86527022 </i>
    <varray name="rec_basis" >
     <v>       0.06492558       0.00000000       0.00000000 </v>
     <v>       0.00000000       0.06492558       0.00000000 </v>
     <v>       0.00000000       0.00000000       0.06492558 </v>
    </varray>
   </crystal>
   <varray name="positions" >
    <v>       0.33879414       0.43964233       0.56702076 </v>
    <v>       0.33818927       0.52606392       0.57680965 </v>
    <v>       0.41476961       0.58288884       0.55590310 </v>
    <v>       0.41650873       0.38905326       0.53666013 </v>
    <v>       0.49918727       0.44417654       0.53063574 </v>
    <v>       0.47816813       0.53532875       0.49456799 </v>
    <v>       0.55679750       0.58619199       0.48006767 </v>
    <v>       0.27994483       0.40255454       0.58138030 </v>
    <v>       0.42794769       0.33402688       0.58109822 </v>
    <v>       0.40183557       0.35894965       0.47314247 </v>
    <v>       0.27944612       0.55843954       0.60008166 </v>
    <v>       0.44943232       0.60158150       0.61588734 </v>
    <v>       0.39318466       0.64412507       0.52595517 </v>
    <v>       0.54799333       0.41205769       0.48961734 </v>
    <v>       0.52838874       0.45215735       0.59545012 </v>
    <v>       0.44589940       0.52767514       0.43089032 </v>
    <v>       0.61986532       0.62692558       0.46951068 </v>
   </varray>
  </structure>
  <varray name="forces" >
   <v>       0.00201012      -0.00104569       0.00425564 </v>
   <v>       0.00341504      -0.00127805       0.00783154 </v>
   <v>      -0.00293856       0.00188327      -0.00656793 </v>
   <v>      -0.00221859      -0.00030758      -0.00745065 </v>
   <v>      -0.00062613      -0.00046481       0.00173387 </v>
   <v>       0.00336070       0.00043486      -0.00045141 </v>
   <v>      -0.01312942      -0.01089477       0.00530104 </v>
   <v>       0.00334508      -0.00133026       0.00954435 </v>
   <v>      -0.00355172      -0.00810267      -0.01308482 </v>
   <v>      -0.00258738       0.01007504      -0.01025109 </v>
   <v>       0.00549831      -0.00232858       0.01502620 </v>
   <v>      -0.00389918       0.01627658      -0.00775878 </v>
   <v>      -0.00946189      -0.00592561      -0.01506961 </v>
   <v>       0.00517726      -0.00024912       0.00641799 </v>
   <v>      -0.00540079      -0.00091221       0.00769699 </v>
   <v>       0.00579476      -0.00277714      -0.00051527 </v>
   <v>       0.01521239       0.00694675       0.00334192 </v>
  </varray>
  <varray name="stress" >
   <v>      -0.84448225       0.00960386      -0.00528133 </v>
   <v>       0.00960386      -0.82866997       0.00948714 </v>
   <v>      -0.00528133       0.00948713      -0.84579316 </v>
  </varray>
  <energy>
   <i name="e_fr_energy">   -103.78967696 </i>
   <i name="e_wo_entrp">   -103.78967696 </i>
   <i name="e_0_energy">   -103.78967696 </i>
  </energy>
  <time name="totalsc">   20.11   25.51</time>
 </calculation>
 <calculation>
  <scstep>
   <time name="dav">    2.75    2.79</time>
   <time name="total">    4.22    4.91</time>
   <energy>
    <i name="alphaZ">      2.15216506 </i>
    <i name="ewald">   2552.56434985 </i>
    <i name="hartreedc">  -3685.90618965 </i>
    <i name="XCdc">    140.50107047 </i>
    <i name="pawpsdc">   3450.46376405 </i>
    <i name="pawaedc">  -3456.76362945 </i>
    <i name="eentropy">     -0.00000000 </i>
    <i name="bandstr">   -513.27706685 </i>
    <i name="atom">   1406.67326350 </i>
    <i name="e_fr_energy">   -103.59227302 </i>
    <i name="e_wo_entrp">   -103.59227302 </i>
    <i name="e_0_energy">   -103.59227302 </i>
   </energy>
  </scstep>
  <scstep>
   <time name="diag">    0.27    0.29</time>
   <time name="diis">    0.81    1.55</time>
   <time name="orth">    0.01    0.01</time>
   <time name="total">    2.22    3.79</time>
   <energy>
    <i name="alphaZ">      2.15216506 </i>
    <i name="ewald">   2552.56434985 </i>
    <i name="hartreedc">  -3685.90278367 </i>
    <i name="XCdc">    140.50081668 </i>
    <i name="pawpsdc">   3450.48169182 </i>
    <i name="pawaedc">  -3456.78150223 </i>
    <i name="eentropy">     -0.00000000 </i>
    <i name="bandstr">   -513.28027497 </i>
    <i name="atom">   1406.67326350 </i>
    <i name="e_fr_energy">   -103.59227395 </i>
    <i name="e_wo_entrp">   -103.59227395 </i>
    <i name="e_0_energy">   -103.59227395 </i>
   </energy>
  </scstep>
  <structure>
   <crystal>
    <varray name="basis" >
     <v>      15.40225029       0.00000000       0.00000000 </v>
     <v>       0.00000000      15.40225029       0.00000000 </v>
     <v>       0.00000000       0.00000000      15.40225029 </v>
    </varray>
    <i name="volume">   3653.86527022 </i>
    <varray name="rec_basis" >
     <v>       0.06492558       0.00000000       0.00000000 </v>
     <v>       0.00000000       0.06492558       0.00000000 </v>
     <v>       0.00000000       0.00000000       0.06492558 </v>
    </varray>
   </crystal>
   <varray name="positions" >
    <v>       0.33879198       0.43964376       0.56701151 </v>
    <v>       0.33818302       0.52606595       0.57679445 </v>
    <v>       0.41477663       0.58288494       0.55591820 </v>
    <v>       0.41651549       0.38905397       0.53667533 </v>
    <v>       0.49919248       0.44418029       0.53064780 </v>
    <v>       0.47817250       0.53533081       0.49457679 </v>
    <v>       0.55679548       0.58619134       0.48007443 </v>
    <v>       0.27993803       0.40255575       0.58135172 </v>
    <v>       0.42795417       0.33403844       0.58112774 </v>
    <v>       0.40185303       0.35893621       0.47316376 </v>
    <v>       0.27942803       0.55844471       0.60003195 </v>
    <v>       0.44943756       0.60153691       0.61591699 </v>
    <v>       0.39321347       0.64414103       0.52599772 </v>
    <v>       0.54800075       0.41205893       0.48963383 </v>
    <v>       0.52839492       0.45216800       0.59546243 </v>
    <v>       0.44589907       0.52767675       0.43090296 </v>
    <v>       0.61986970       0.62693167       0.46951297 </v>
   </varray>
  </structure>
  <varray name="forces" >
   <v>       0.00188634      -0.00092890       0.00422674 </v>
   <v>       0.00331543      -0.00153767       0.00691401 </v>
   <v>      -0.00198956       0.00177760      -0.00601195 </v>
   <v>      -0.00251634      -0.00092733      -0.00615439 </v>
   <v>      -0.00087879      -0.00062632       0.00152127 </v>
   <v>       0.00067944      -0.00096150      -0.00072800 </v>
   <v>       0.00330924      -0.00052642       0.00360966 </v>
   <v>       0.00339210      -0.00106829       0.01048887 </v>
   <v>      -0.00357572      -0.00757349      -0.01351377 </v>
   <v>      -0.00320201       0.00957747      -0.01109420 </v>
   <v>       0.00632186      -0.00250659       0.01700405 </v>
   <v>      -0.00400934       0.01726196      -0.00881962 </v>
   <v>      -0.01033038      -0.00520813      -0.01587624 </v>
   <v>       0.00542666      -0.00035801       0.00584898 </v>
   <v>      -0.00579475      -0.00146259       0.00729051 </v>
   <v>       0.00601552      -0.00290178      -0.00074517 </v>
   <v>       0.00195029      -0.00203003       0.00603924 </v>
  </varray>
  <varray name="stress" >
   <v>      -0.85278703       0.00899634      -0.00809708 </v>
   <v>       0.00899634      -0.83218737       0.01079341 </v>
   <v>      -0.00809708       0.01079341      -0.84607331 </v>
  </varray>
  <energy>
   <i name="e_fr_energy">   -103.78961256 </i>
   <i name="e_wo_entrp">   -103.78961256 </i>
   <i name="e_0_energy">   -103.78961256 </i>
  </energy>
  <time name="totalsc">   16.81   22.40</time>
 </calculation>
 <calculation>
  <scstep>
   <time name="dav">    1.29    1.85</time>
   <time name="total">    2.75    4.79</time>
   <energy>
    <i name="alphaZ">      2.15216506 </i>
    <i name="ewald">   2552.55025404 </i>
    <i name="hartreedc">  -3685.88766362 </i>
    <i name="XCdc">    140.50042915 </i>
    <i name="pawpsdc">   3450.45972992 </i>
    <i name="pawaedc">  -3456.75945887 </i>
    <i name="eentropy">     -0.00000000 </i>
    <i name="bandstr">   -513.28103007 </i>
    <i name="atom">   1406.67326350 </i>
    <i name="e_fr_energy">   -103.59231088 </i>
    <i name="e_wo_entrp">   -103.59231088 </i>
    <i name="e_0_energy">   -103.59231088 </i>
   </energy>
  </scstep>
  <scstep>
   <time name="diag">    0.24    0.30</time>
   <time name="diis">    0.97    1.05</time>
   <time name="orth">    0.01    0.01</time>
   <time name="total">    2.51    3.06</time>
   <energy>
    <i name="alphaZ">      2.15216506 </i>
    <i name="ewald">   2552.55025404 </i>
    <i name="hartreedc">  -3685.88625640 </i>
    <i name="XCdc">    140.50034163 </i>
    <i name="pawpsdc">   3450.41745334 </i>
    <i name="pawaedc">  -3456.71715299 </i>
    <i name="eentropy">     -0.00000000 </i>
    <i name="bandstr">   -513.28237945 </i>
    <i name="atom">   1406.67326350 </i>
    <i name="e_fr_energy">   -103.59231128 </i>
    <i name="e_wo_entrp">   -103.59231128 </i>
    <i name="e_0_energy">   -103.59231128 </i>
   </energy>
  </scstep>
  <structure>
   <crystal>
    <varray name="basis" >
     <v>      15.40225029       0.00000000       0.00000000 </v>
     <v>       0.00000000      15.40225029       0.00000000 </v>
     <v>       0.00000000       0.00000000      15.40225029 </v>
    </varray>
    <i name="volume">   3653.86527022 </i>
    <varray name="rec_basis" >
     <v>       0.06492558       0.00000000       0.00000000 </v>
     <v>       0.00000000       0.06492558       0.00000000 </v>
     <v>       0.00000000       0.00000000       0.06492558 </v>
    </varray>
   </crystal>
   <varray name="positions" >
    <v>       0.33879343       0.43964301       0.56701702 </v>
    <v>       0.33818683       0.52606471       0.57680354 </v>
    <v>       0.41477308       0.58288709       0.55590933 </v>
    <v>       0.41651135       0.38905332       0.53666677 </v>
    <v>       0.49918918       0.44417855       0.53064101 </v>
    <v>       0.47817038       0.53533012       0.49457145 </v>
    <v>       0.55679310       0.58618923       0.48007161 </v>
    <v>       0.27994177       0.40255506       0.58136701 </v>
    <v>       0.42795099       0.33403246       0.58111225 </v>
    <v>       0.40184419       0.35894372       0.47315289 </v>
    <v>       0.27943732       0.55844210       0.60005740 </v>
    <v>       0.44943473       0.60155956       0.61590170 </v>
    <v>       0.39319869       0.64413314       0.52597593 </v>
    <v>       0.54799751       0.41205815       0.48962586 </v>
    <v>       0.52839177       0.45216283       0.59545688 </v>
    <v>       0.44589968       0.52767581       0.43089721 </v>
    <v>       0.61987034       0.62693016       0.46951148 </v>
   </varray>
  </structure>
  <varray name="forces" >
   <v>       0.00149554      -0.00098303       0.00358799 </v>
   <v>       0.00296605      -0.00119851       0.00604087 </v>
   <v>      -0.00208281       0.00145414      -0.00473748 </v>
   <v>      -0.00167661      -0.00026188      -0.00550122 </v>
   <v>      -0.00006093      -0.00068522       0.00278908 </v>
   <v>       0.00094564      -0.00131464       0.00061315 </v>
   <v>       0.00770988       0.00250255       0.00246429 </v>
   <v>       0.00332047      -0.00112557       0.00989201 </v>
   <v>      -0.00354788      -0.00781548      -0.01335233 </v>
   <v>      -0.00314046       0.00951548      -0.01126623 </v>
   <v>       0.00594054      -0.00246040       0.01586301 </v>
   <v>      -0.00403926       0.01664116      -0.00867312 </v>
   <v>      -0.00997231      -0.00545219      -0.01553112 </v>
   <v>       0.00501160      -0.00014415       0.00620620 </v>
   <v>      -0.00605553      -0.00128666       0.00660103 </v>
   <v>       0.00542604      -0.00296285      -0.00158540 </v>
   <v>      -0.00223997      -0.00442274       0.00658928 </v>
  </varray>
  <varray name="stress" >
   <v>      -0.85264471       0.00713830      -0.00643871 </v>
   <v>       0.00713830      -0.83211034       0.01070659 </v>
   <v>      -0.00643870       0.01070659      -0.84616900 </v>
  </varray>
  <energy>
   <i name="e_fr_energy">   -103.78964809 </i>
   <i name="e_wo_entrp">   -103.78964809 </i>
   <i name="e_0_energy">   -103.78964809 </i>
  </energy>
  <time name="totalsc">   13.83   18.21</time>
  <eigenvalues>
   <array>
    <dimension dim="1">band</dimension>
    <dimension dim="2">kpoint</dimension>
    <dimension dim="3">spin</dimension>
    <field>eigene</field>
    <field>occ</field>
    <set>
     <set comment="spin 1">
      <set comment="kpoint 1">
       <r>  -22.2790    1.0000 </r>
       <r>  -21.1894    1.0000 </r>
       <r>  -19.1003    1.0000 </r>
       <r>  -18.7142    1.0000 </r>
       <r>  -15.9968    1.0000 </r>
       <r>  -15.4582    1.0000 </r>
       <r>  -13.0826    1.0000 </r>
       <r>  -13.0146    1.0000 </r>
       <r>  -11.7769    1.0000 </r>
       <r>  -11.0022    1.0000 </r>
       <r>  -10.5277    1.0000 </r>
       <r>  -10.3589    1.0000 </r>
       <r>   -9.8364    1.0000 </r>
       <r>   -9.6476    1.0000 </r>
       <r>   -8.7433    1.0000 </r>
       <r>   -8.5232    1.0000 </r>
       <r>   -8.2926    1.0000 </r>
       <r>   -7.9200    1.0000 </r>
       <r>   -7.5863    1.0000 </r>
       <r>   -7.4654    1.0000 </r>
       <r>   -6.1257    1.0000 </r>
       <r>   -0.9303    0.0000 </r>
       <r>   -0.5944    0.0000 </r>
       <r>   -0.1521    0.0000 </r>
       <r>   -0.0766    0.0000 </r>
       <r>   -0.0329    0.0000 </r>
       <r>    0.0297    0.0000 </r>
       <r>    0.1688    0.0000 </r>
       <r>    0.3789    0.0000 </r>
       <r>    0.4863    0.0000 </r>
      </set>
     </set>
    </set>
   </array>
  </eigenvalues>
  <separator name="orbital magnetization" >
   <v name="MAGDIPOLOUT">      0.00000000      0.00000000      0.00000000</v>
  </separator>
 </calculation>
 <structure name="finalpos" >
  <crystal>
   <varray name="basis" >
    <v>      15.40225029       0.00000000       0.00000000 </v>
    <v>       0.00000000      15.40225029       0.00000000 </v>
    <v>       0.00000000       0.00000000      15.40225029 </v>
   </varray>
   <i name="volume">   3653.86527022 </i>
   <varray name="rec_basis" >
    <v>       0.06492558       0.00000000       0.00000000 </v>
    <v>       0.00000000       0.06492558       0.00000000 </v>
    <v>       0.00000000       0.00000000       0.06492558 </v>
   </varray>
  </crystal>
  <varray name="positions" >
   <v>       0.33879343       0.43964301       0.56701702 </v>
   <v>       0.33818683       0.52606471       0.57680354 </v>
   <v>       0.41477308       0.58288709       0.55590933 </v>
   <v>       0.41651135       0.38905332       0.53666677 </v>
   <v>       0.49918918       0.44417855       0.53064101 </v>
   <v>       0.47817038       0.53533012       0.49457145 </v>
   <v>       0.55679310       0.58618923       0.48007161 </v>
   <v>       0.27994177       0.40255506       0.58136701 </v>
   <v>       0.42795099       0.33403246       0.58111225 </v>
   <v>       0.40184419       0.35894372       0.47315289 </v>
   <v>       0.27943732       0.55844210       0.60005740 </v>
   <v>       0.44943473       0.60155956       0.61590170 </v>
   <v>       0.39319869       0.64413314       0.52597593 </v>
   <v>       0.54799751       0.41205815       0.48962586 </v>
   <v>       0.52839177       0.45216283       0.59545688 </v>
   <v>       0.44589968       0.52767581       0.43089721 </v>
   <v>       0.61987034       0.62693016       0.46951148 </v>
  </varray>
 </structure>
</modeling>
