unknown system                          
           1
    15.402250    0.000000    0.000000
     0.000000   15.402250    0.000000
     0.000000    0.000000   15.402250
   C    H    N 
     7     9     1
Direct configuration=     1
   0.33794731  0.43888269  0.57664537
   0.33568234  0.53309719  0.57912156
   0.40381729  0.58497369  0.56248302
   0.40899409  0.39153510  0.55825681
   0.44525107  0.44037195  0.38783310
   0.44385560  0.52744710  0.39255656
   0.51990641  0.57919244  0.38889734
   0.27566295  0.40639116  0.58544788
   0.47124990  0.42361153  0.55050685
   0.40741181  0.32150006  0.54993480
   0.27211010  0.56216004  0.58999082
   0.46807479  0.55849748  0.55031634
   0.39836468  0.65513545  0.55781240
   0.38587349  0.40308582  0.39366988
   0.50547701  0.40452575  0.38013839
   0.38372963  0.56278865  0.40285837
   0.58150905  0.62359758  0.38712288
Direct configuration=     2
   0.33790102  0.43884790  0.57664320
   0.33568677  0.53312585  0.57914157
   0.40387307  0.58504770  0.56239354
   0.40892544  0.39150527  0.55819252
   0.44498336  0.44032885  0.38747979
   0.44366244  0.52745482  0.39214024
   0.51973456  0.57921247  0.38844835
   0.27560763  0.40635061  0.58561834
   0.47136693  0.42350762  0.55024744
   0.40729994  0.32140119  0.54987847
   0.27209334  0.56226147  0.59020841
   0.46816841  0.55850831  0.55011460
   0.39833680  0.65523383  0.55776393
   0.38555919  0.40306411  0.39334510
   0.50533931  0.40447312  0.37963575
   0.38341966  0.56280833  0.40264949
   0.58136567  0.62364057  0.38664010
Direct configuration=     3
   0.33783166  0.43882639  0.57664521
   0.33571038  0.53319497  0.57916197
   0.40392877  0.58511078  0.56227101
   0.40889351  0.39145011  0.55808310
   0.44464529  0.44026954  0.38697171
   0.44333318  0.52746890  0.39156259
   0.51952227  0.57926477  0.38780572
   0.27554172  0.40629355  0.58585633
   0.47147897  0.42332935  0.54989276
   0.40714365  0.32128678  0.54980392
   0.27210012  0.56239435  0.59050798
   0.46827755  0.55854285  0.54984198
   0.39830076  0.65536619  0.55769722
   0.38511529  0.40303981  0.39287534
   0.50508644  0.40442259  0.37893303
   0.38302571  0.56281399  0.40232958
   0.58111864  0.62366626  0.38595634
Direct configuration=     4
   0.33781139  0.43881640  0.57664360
   0.33572130  0.53323563  0.57917342
   0.40396205  0.58514901  0.56219499
   0.40887114  0.39142019  0.55801415
   0.44443702  0.44024586  0.38665784
   0.44313324  0.52747410  0.39121115
   0.51933900  0.57926300  0.38741023
   0.27550991  0.40625940  0.58599971
   0.47153265  0.42320874  0.54968177
   0.40705032  0.32122631  0.54976131
   0.27212077  0.56247180  0.59068623
   0.46833165  0.55857409  0.54968394
   0.39828108  0.65543493  0.55765875
   0.38485098  0.40303172  0.39257977
   0.50491002  0.40439936  0.37850686
   0.38279677  0.56281184  0.40211931
   0.58099712  0.62369984  0.38553728
Direct configuration=     5
   0.33781291  0.43881385  0.57664080
   0.33573364  0.53326779  0.57918034
   0.40398347  0.58517861  0.56213199
   0.40885217  0.39139567  0.55795311
   0.44425683  0.44023689  0.38638975
   0.44295716  0.52747174  0.39091875
   0.51920526  0.57928159  0.38707164
   0.27549917  0.40623344  0.58611615
   0.47156072  0.42309303  0.54951325
   0.40697468  0.32118782  0.54973046
   0.27215711  0.56253257  0.59082925
   0.46836237  0.55861313  0.54956369
   0.39826746  0.65547826  0.55763019
   0.38463892  0.40303459  0.39232009
   0.50473484  0.40438929  0.37815470
   0.38261921  0.56280258  0.40192233
   0.58085577  0.62369526  0.38518582
Direct configuration=     6
   0.33783067  0.43882662  0.57663799
   0.33579404  0.53333028  0.57918511
   0.40400377  0.58523904  0.56199508
   0.40881320  0.39132826  0.55780413
   0.44381559  0.44023453  0.38575581
   0.44255907  0.52747601  0.39024488
   0.51882421  0.57928650  0.38627871
   0.27554031  0.40618785  0.58636853
   0.47159786  0.42279071  0.54915050
   0.40680649  0.32112540  0.54967634
   0.27228331  0.56266484  0.59113943
   0.46840335  0.55873735  0.54932668
   0.39824194  0.65554834  0.55757760
   0.38416856  0.40306835  0.39168093
   0.50426228  0.40438713  0.37735965
   0.38223313  0.56277063  0.40139993
   0.58052511  0.62366668  0.38437036
Direct configuration=     7
   0.33787878  0.43884050  0.57663045
   0.33589005  0.53341791  0.57919670
   0.40405826  0.58535944  0.56176159
   0.40872098  0.39121968  0.55755518
   0.44302514  0.44024255  0.38463205
   0.44186126  0.52748465  0.38904946
   0.51816849  0.57930365  0.38488600
   0.27563976  0.40611152  0.58680075
   0.47169432  0.42225814  0.54852793
   0.40651021  0.32099327  0.54959376
   0.27251187  0.56289552  0.59167048
   0.46848304  0.55896564  0.54893859
   0.39819035  0.65568198  0.55749793
   0.38331495  0.40312825  0.39053099
   0.50342955  0.40437495  0.37597611
   0.38152966  0.56273274  0.40043816
   0.57992410  0.62359195  0.38293817
Direct configuration=     8
   0.33790011  0.43885108  0.57663073
   0.33593542  0.53344730  0.57920036
   0.40407125  0.58540437  0.56168878
   0.40869349  0.39117200  0.55746937
   0.44272400  0.44024990  0.38420021
   0.44160025  0.52749529  0.38859497
   0.51790586  0.57929623  0.38436493
   0.27569963  0.40608616  0.58695206
   0.47173518  0.42204792  0.54831394
   0.40639744  0.32093887  0.54958105
   0.27260616  0.56297828  0.59185757
   0.46851413  0.55906320  0.54882112
   0.39816636  0.65573547  0.55748485
   0.38298993  0.40315721  0.39007820
   0.50310849  0.40436960  0.37547294
   0.38126521  0.56272450  0.40003911
   0.57970590  0.62356036  0.38240522
Direct configuration=     9
   0.33792416  0.43886092  0.57663236
   0.33599163  0.53349025  0.57920989
   0.40409497  0.58547041  0.56159995
   0.40866043  0.39110441  0.55736438
   0.44232372  0.44025292  0.38361331
   0.44124302  0.52750888  0.38797318
   0.51759419  0.57930912  0.38366523
   0.27576800  0.40604812  0.58715522
   0.47180508  0.42176969  0.54802943
   0.40623952  0.32085094  0.54957388
   0.27271959  0.56309102  0.59211044
   0.46856945  0.55919014  0.54866763
   0.39812689  0.65582246  0.55747754
   0.38254233  0.40319077  0.38946541
   0.50269913  0.40435284  0.37479657
   0.38089801  0.56272212  0.39949839
   0.57940046  0.62350988  0.38169305
Direct configuration=    10
   0.33794790  0.43886122  0.57664423
   0.33600481  0.53350528  0.57922620
   0.40409507  0.58551956  0.56164621
   0.40866025  0.39106167  0.55740514
   0.44219648  0.44026026  0.38334721
   0.44113889  0.52752031  0.38767739
   0.51749166  0.57929573  0.38341053
   0.27581053  0.40602063  0.58720269
   0.47186037  0.42162308  0.54801899
   0.40617424  0.32079231  0.54968673
   0.27275292  0.56312819  0.59218359
   0.46859622  0.55928184  0.54872922
   0.39807733  0.65588011  0.55758285
   0.38238361  0.40321731  0.38914727
   0.50257111  0.40433724  0.37458900
   0.38077945  0.56273635  0.39916422
   0.57934174  0.62349402  0.38148986
Direct configuration=    11
   0.33797764  0.43886523  0.57666055
   0.33602813  0.53352926  0.57924815
   0.40409611  0.58558705  0.56169643
   0.40865895  0.39099840  0.55744463
   0.44200583  0.44026888  0.38296484
   0.44097515  0.52753096  0.38725641
   0.51736771  0.57930363  0.38302863
   0.27586605  0.40598380  0.58728108
   0.47193012  0.42141164  0.54797955
   0.40607382  0.32071333  0.54982826
   0.27280317  0.56318548  0.59229966
   0.46863235  0.55940822  0.54879179
   0.39801216  0.65595785  0.55771565
   0.38215502  0.40325325  0.38870078
   0.50237992  0.40431759  0.37426871
   0.38060293  0.56275021  0.39870485
   0.57921546  0.62345538  0.38117155
Direct configuration=    12
   0.33801933  0.43887055  0.57668780
   0.33605137  0.53355575  0.57928322
   0.40409204  0.58567793  0.56180608
   0.40866441  0.39091129  0.55753669
   0.44182609  0.44028105  0.38252506
   0.44082373  0.52754522  0.38677025
   0.51723749  0.57929756  0.38262319
   0.27593366  0.40594037  0.58734600
   0.47201791  0.42114779  0.54799818
   0.40594457  0.32060707  0.55006097
   0.27284955  0.56324494  0.59241178
   0.46867487  0.55957454  0.54894066
   0.39791771  0.65605873  0.55793661
   0.38193056  0.40329847  0.38817380
   0.50220716  0.40429055  0.37395652
   0.38042709  0.56277209  0.39813267
   0.57912417  0.62343215  0.38086330
Direct configuration=    13
   0.33804371  0.43887304  0.57670517
   0.33606240  0.53357014  0.57930608
   0.40408868  0.58572823  0.56187952
   0.40866369  0.39086129  0.55759686
   0.44176127  0.44028579  0.38231118
   0.44076589  0.52755159  0.38653582
   0.51718713  0.57929818  0.38243497
   0.27596499  0.40592250  0.58737026
   0.47205882  0.42100381  0.54802705
   0.40586491  0.32054788  0.55020244
   0.27286817  0.56327245  0.59246195
   0.46869444  0.55966549  0.54904140
   0.39786422  0.65611137  0.55807372
   0.38184652  0.40331977  0.38791816
   0.50214729  0.40427826  0.37382177
   0.38035378  0.56278050  0.39784343
   0.57908951  0.62343012  0.38072602
Direct configuration=    14
   0.33807141  0.43887690  0.57672602
   0.33607740  0.53358799  0.57933312
   0.40408515  0.58578898  0.56196256
   0.40866230  0.39080029  0.55766380
   0.44166941  0.44029222  0.38203870
   0.44068300  0.52755861  0.38623710
   0.51712767  0.57930741  0.38218768
   0.27600520  0.40590024  0.58740636
   0.47211016  0.42082543  0.54805065
   0.40576729  0.32047585  0.55036756
   0.27289474  0.56330834  0.59252983
   0.46871982  0.55977676  0.54915362
   0.39780041  0.65617627  0.55823356
   0.38173016  0.40334610  0.38759492
   0.50206037  0.40426335  0.37363875
   0.38025449  0.56279025  0.39748350
   0.57902724  0.62341756  0.38053925
Direct configuration=    15
   0.33808842  0.43888085  0.57674378
   0.33608475  0.53359817  0.57935599
   0.40408051  0.58582923  0.56203859
   0.40865739  0.39075611  0.55772350
   0.44166015  0.44029587  0.38190195
   0.44066904  0.52756168  0.38608828
   0.51710620  0.57930908  0.38207793
   0.27602427  0.40589520  0.58741249
   0.47213517  0.42070882  0.54809599
   0.40569039  0.32042630  0.55049865
   0.27290214  0.56332334  0.59255648
   0.46873272  0.55985016  0.54925825
   0.39775560  0.65621655  0.55836443
   0.38171147  0.40335755  0.38743072
   0.50205663  0.40425720  0.37357427
   0.38022443  0.56279169  0.39728087
   0.57902125  0.62343275  0.38046594
Direct configuration=    16
   0.33810649  0.43888504  0.57676315
   0.33609333  0.53360989  0.57938117
   0.40407615  0.58587388  0.56211916
   0.40865065  0.39070762  0.55778642
   0.44164112  0.44029974  0.38174228
   0.44064385  0.52756438  0.38591406
   0.51709321  0.57932337  0.38194386
   0.27604602  0.40588920  0.58742400
   0.47216466  0.42057730  0.54813874
   0.40560470  0.32037100  0.55063964
   0.27291290  0.56334142  0.59259070
   0.46874865  0.55993208  0.54936747
   0.39770673  0.65626213  0.55850541
   0.38168161  0.40337032  0.38724021
   0.50204370  0.40425052  0.37348986
   0.38018472  0.56279273  0.39705062
   0.57899299  0.62343711  0.38037115
Direct configuration=    17
   0.33812375  0.43889088  0.57678851
   0.33610076  0.53362168  0.57941414
   0.40406978  0.58592378  0.56222631
   0.40863766  0.39065013  0.55786888
   0.44166027  0.44030371  0.38159692
   0.44064807  0.52756704  0.38575551
   0.51708773  0.57933474  0.38183251
   0.27606302  0.40589151  0.58742527
   0.47219131  0.42042901  0.54820732
   0.40549661  0.32030679  0.55081375
   0.27291763  0.56335441  0.59261649
   0.46876507  0.56002412  0.54951170
   0.39765050  0.65631180  0.55868320
   0.38169443  0.40337848  0.38706580
   0.50207213  0.40424687  0.37343583
   0.38016796  0.56278831  0.39682137
   0.57898957  0.62346371  0.38029863
Direct configuration=    18
   0.33813361  0.43889643  0.57680944
   0.33610543  0.53362969  0.57944152
   0.40406483  0.58596073  0.56231573
   0.40862362  0.39060542  0.55793681
   0.44169768  0.44030644  0.38150846
   0.44066678  0.52756716  0.38565696
   0.51710071  0.57935087  0.38176849
   0.27606972  0.40589961  0.58742179
   0.47220790  0.42031544  0.54826806
   0.40540695  0.32025701  0.55095237
   0.27291729  0.56335957  0.59263013
   0.46877793  0.56009384  0.54963013
   0.39760813  0.65634880  0.55882777
   0.38173062  0.40337978  0.38695660
   0.50211796  0.40424749  0.37341460
   0.38017063  0.56278070  0.39666590
   0.57898955  0.62348869  0.38025901
Direct configuration=    19
   0.33814322  0.43890218  0.57683112
   0.33611005  0.53363788  0.57946997
   0.40406000  0.58599877  0.56240900
   0.40860871  0.39055934  0.55800781
   0.44173905  0.44030887  0.38142021
   0.44068833  0.52756744  0.38555782
   0.51711388  0.57936674  0.38170516
   0.27607525  0.40590882  0.58741803
   0.47222477  0.42019820  0.54833215
   0.40531391  0.32020565  0.55109629
   0.27291623  0.56336401  0.59264349
   0.46879159  0.56016581  0.54975349
   0.39756456  0.65638689  0.55897846
   0.38177107  0.40338029  0.38684642
   0.50216835  0.40424873  0.37339496
   0.38017521  0.56277237  0.39650758
   0.57899212  0.62351662  0.38021997
Direct configuration=    20
   0.33815088  0.43890961  0.57685783
   0.33611449  0.53364681  0.57950524
   0.40405468  0.58604268  0.56252563
   0.40858727  0.39050433  0.55809624
   0.44180757  0.44031103  0.38133608
   0.44072941  0.52756752  0.38545991
   0.51713049  0.57938256  0.38164856
   0.27607479  0.40592555  0.58741087
   0.47224152  0.42005927  0.54841514
   0.40519834  0.32014472  0.55127081
   0.27291114  0.56336450  0.59265433
   0.46880870  0.56025037  0.54990587
   0.39751399  0.65643087  0.55916442
   0.38184149  0.40337586  0.38673664
   0.50224906  0.40425368  0.37338806
   0.38019371  0.56275866  0.39633776
   0.57900969  0.62356276  0.38018663
Direct configuration=    21
   0.33815796  0.43891639  0.57688291
   0.33611879  0.53365542  0.57953826
   0.40404989  0.58608439  0.56263531
   0.40856731  0.39045225  0.55817969
   0.44186964  0.44031266  0.38125407
   0.44076390  0.52756630  0.38536422
   0.51716078  0.57940875  0.38159134
   0.27607430  0.40594094  0.58740534
   0.47225793  0.41992729  0.54849280
   0.40508980  0.32008716  0.55143546
   0.27290662  0.56336528  0.59266558
   0.46882535  0.56033083  0.55004907
   0.39746619  0.65647273  0.55933998
   0.38190498  0.40337183  0.38662904
   0.50232280  0.40425832  0.37337828
   0.38020914  0.56274601  0.39617404
   0.57901197  0.62359616  0.38015287
Direct configuration=    22
   0.33816235  0.43892478  0.57691444
   0.33612308  0.53366530  0.57957981
   0.40404475  0.58613417  0.56277574
   0.40853913  0.39038818  0.55828669
   0.44196375  0.44031380  0.38117345
   0.44082155  0.52756501  0.38526492
   0.51719397  0.57943483  0.38153808
   0.27606567  0.40596555  0.58739709
   0.47227493  0.41976564  0.54859487
   0.40495280  0.32001711  0.55164036
   0.27289712  0.56336132  0.59267485
   0.46884719  0.56042882  0.55022981
   0.39740909  0.65652268  0.55956223
   0.38200336  0.40336143  0.38651591
   0.50243297  0.40426777  0.37338070
   0.38023995  0.56272685  0.39598990
   0.57903312  0.62365281  0.38012316
Direct configuration=    23
   0.33816276  0.43893244  0.57694466
   0.33612629  0.53367407  0.57961935
   0.40404088  0.58617998  0.56291166
   0.40850990  0.39032780  0.55839089
   0.44206420  0.44031377  0.38111130
   0.44088327  0.52756238  0.38518310
   0.51723870  0.57946711  0.38149782
   0.27605080  0.40599294  0.58738978
   0.47228861  0.41961325  0.54869595
   0.40482211  0.31995184  0.55183499
   0.27288534  0.56335404  0.59268098
   0.46886928  0.56052103  0.55040310
   0.39735686  0.65656868  0.55977673
   0.38210944  0.40334722  0.38642063
   0.50255005  0.40427983  0.37339129
   0.38027645  0.56270625  0.39582692
   0.57905181  0.62370724  0.38010261
Direct configuration=    24
   0.33815945  0.43893251  0.57694601
   0.33612567  0.53367378  0.57962084
   0.40404142  0.58618020  0.56291922
   0.40850645  0.39032602  0.55839719
   0.44207835  0.44031301  0.38112245
   0.44089414  0.52756209  0.38519200
   0.51724119  0.57946698  0.38150671
   0.27604429  0.40599762  0.58738965
   0.47228666  0.41960896  0.54870370
   0.40481675  0.31995051  0.55184220
   0.27288234  0.56335057  0.59267850
   0.46887110  0.56052344  0.55041115
   0.39735672  0.65656892  0.55978771
   0.38212535  0.40334279  0.38642894
   0.50256610  0.40428299  0.37339995
   0.38028477  0.56270323  0.39583236
   0.57906133  0.62371700  0.38010919
Direct configuration=    25
   0.33815733  0.43893428  0.57695245
   0.33612584  0.53367512  0.57962907
   0.40404109  0.58618911  0.56295039
   0.40849849  0.39031324  0.55842144
   0.44210682  0.44031262  0.38111842
   0.44091253  0.52756082  0.38518255
   0.51725779  0.57947752  0.38150487
   0.27603699  0.40600604  0.58738808
   0.47228787  0.41957675  0.54872856
   0.40478817  0.31993695  0.55188449
   0.27287801  0.56334675  0.59267781
   0.46887650  0.56054276  0.55044996
   0.39734662  0.65657785  0.55983645
   0.38215633  0.40333706  0.38641606
   0.50259927  0.40428742  0.37340784
   0.38029748  0.56269705  0.39580445
   0.57906647  0.62373053  0.38011008
Direct configuration=    26
   0.33815390  0.43893565  0.57695999
   0.33612572  0.53367646  0.57963845
   0.40404103  0.58619844  0.56298710
   0.40848883  0.39029891  0.55845037
   0.44214253  0.44031202  0.38111676
   0.44093656  0.52755974  0.38517437
   0.51727216  0.57948594  0.38150566
   0.27602716  0.40601646  0.58738648
   0.47228849  0.41954084  0.54875806
   0.40475582  0.31992199  0.55193245
   0.27287244  0.56334162  0.59267638
   0.46888279  0.56056411  0.55049445
   0.39733565  0.65658725  0.55989258
   0.38219455  0.40332927  0.38640431
   0.50263964  0.40429345  0.37341904
   0.38031344  0.56268951  0.39577560
   0.57907900  0.62375178  0.38011313
Direct configuration=    27
   0.33810484  0.43895751  0.57707814
   0.33612409  0.53369883  0.57978414
   0.40403914  0.58634511  0.56354803
   0.40834577  0.39007666  0.55889271
   0.44267238  0.44030528  0.38106820
   0.44128615  0.52754455  0.38502859
   0.51752057  0.57963684  0.38149993
   0.27588536  0.40617053  0.58736312
   0.47230169  0.41899090  0.54920546
   0.40426346  0.31969170  0.55266686
   0.27279200  0.56326998  0.59265902
   0.46897873  0.56089272  0.55117332
   0.39716601  0.65673365  0.56074789
   0.38276273  0.40321651  0.38620381
   0.50324354  0.40438160  0.37357722
   0.38054876  0.56257787  0.39531435
   0.57922455  0.62403643  0.38014823
Direct configuration=    28
   0.33810784  0.43895622  0.57706985
   0.33612410  0.53369638  0.57977289
   0.40403739  0.58633355  0.56350250
   0.40835606  0.39009360  0.55885789
   0.44262655  0.44030303  0.38106964
   0.44125857  0.52754788  0.38503998
   0.51750162  0.57962449  0.38149902
   0.27589593  0.40615790  0.58736616
   0.47229897  0.41903505  0.54917429
   0.40430521  0.31970871  0.55260997
   0.27279882  0.56327716  0.59266033
   0.46897125  0.56086701  0.55112185
   0.39718015  0.65672210  0.56068268
   0.38272034  0.40322709  0.38621648
   0.50319863  0.40437364  0.37356447
   0.38053046  0.56258724  0.39534835
   0.57921407  0.62401379  0.38014650
Direct configuration=    29
   0.33810234  0.43895888  0.57708207
   0.33612366  0.53369829  0.57978750
   0.40403637  0.58634835  0.56355818
   0.40834085  0.39007100  0.55890221
   0.44267852  0.44030278  0.38106318
   0.44129412  0.52754620  0.38502501
   0.51752605  0.57963879  0.38149756
   0.27588136  0.40617312  0.58736430
   0.47229934  0.41897996  0.54922159
   0.40425718  0.31968473  0.55268449
   0.27279096  0.56327064  0.59265831
   0.46898070  0.56090033  0.55119147
   0.39716335  0.65673692  0.56077007
   0.38277779  0.40321640  0.38619436
   0.50326005  0.40438205  0.37358009
   0.38055446  0.56257602  0.39530028
   0.57923034  0.62404272  0.38015047
Direct configuration=    30
   0.33809803  0.43896020  0.57709206
   0.33612305  0.53369953  0.57979865
   0.40403565  0.58635887  0.56359966
   0.40832933  0.39005429  0.55893622
   0.44271733  0.44030362  0.38105607
   0.44131938  0.52754469  0.38501276
   0.51754502  0.57964946  0.38149552
   0.27587044  0.40618389  0.58736404
   0.47229868  0.41894056  0.54925937
   0.40422432  0.31966678  0.55273998
   0.27278574  0.56326704  0.59265682
   0.46898750  0.56092480  0.55124412
   0.39715172  0.65674757  0.56083583
   0.38281998  0.40320859  0.38617572
   0.50330549  0.40438863  0.37359143
   0.38057239  0.56256824  0.39526309
   0.57924082  0.62406214  0.38015375
Direct configuration=    31
   0.33808743  0.43896262  0.57711629
   0.33612196  0.53370259  0.57982528
   0.40403413  0.58638336  0.56370138
   0.40830209  0.39001366  0.55902027
   0.44281165  0.44030413  0.38103762
   0.44138096  0.52754281  0.38498101
   0.51758693  0.57967255  0.38149056
   0.27584358  0.40620965  0.58736390
   0.47229727  0.41884556  0.54935185
   0.40414499  0.31962367  0.55287492
   0.27277271  0.56325842  0.59265349
   0.46900409  0.56098330  0.55137205
   0.39712348  0.65677263  0.56099542
   0.38292202  0.40318888  0.38612920
   0.50341460  0.40440569  0.37361895
   0.38061491  0.56254978  0.39517191
   0.57927083  0.62411382  0.38016210
Direct configuration=    32
   0.33804852  0.43897086  0.57720544
   0.33611752  0.53371421  0.57992352
   0.40402843  0.58647332  0.56406930
   0.40820390  0.38986595  0.55932397
   0.44315183  0.44030423  0.38096983
   0.44160247  0.52753579  0.38486469
   0.51774847  0.57976361  0.38147168
   0.27574711  0.40630228  0.58736368
   0.47229238  0.41850452  0.54968417
   0.40385971  0.31946904  0.55336016
   0.27272606  0.56322774  0.59264174
   0.46906414  0.56119380  0.55183177
   0.39702182  0.65686304  0.56156910
   0.38328986  0.40311894  0.38596077
   0.50380761  0.40446712  0.37371672
   0.38076728  0.56248390  0.39484322
   0.57936621  0.62428984  0.38019083
Direct configuration=    33
   0.33804304  0.43897193  0.57721608
   0.33611686  0.53371495  0.57993504
   0.40402705  0.58648424  0.56411134
   0.40819231  0.38984831  0.55935943
   0.44318668  0.44030097  0.38095972
   0.44162890  0.52753657  0.38484820
   0.51776977  0.57977608  0.38146768
   0.27573528  0.40631242  0.58736466
   0.47229141  0.41846525  0.54972663
   0.40382801  0.31945055  0.55341924
   0.27272059  0.56322478  0.59264051
   0.46907154  0.56121849  0.55188761
   0.39700969  0.65687368  0.56163847
   0.38333308  0.40311255  0.38593543
   0.50385395  0.40447356  0.37372601
   0.38078368  0.56247728  0.39479988
   0.57937662  0.62430825  0.38019423
Direct configuration=    34
   0.33804215  0.43897182  0.57721825
   0.33611673  0.53371515  0.57993734
   0.40402702  0.58648605  0.56411991
   0.40819028  0.38984520  0.55936693
   0.44319334  0.44030192  0.38095686
   0.44163365  0.52753597  0.38484382
   0.51777123  0.57977670  0.38146651
   0.27573296  0.40631408  0.58736513
   0.47229125  0.41845829  0.54973536
   0.40382256  0.31944718  0.55343074
   0.27271964  0.56322435  0.59264032
   0.46907294  0.56122292  0.55189845
   0.39700745  0.65687549  0.56165182
   0.38334041  0.40311110  0.38592938
   0.50386210  0.40447499  0.37372725
   0.38078677  0.56247609  0.39479059
   0.57938053  0.62431289  0.38019467
Direct configuration=    35
   0.33803785  0.43897243  0.57722616
   0.33611601  0.53371577  0.57994580
   0.40402609  0.58649394  0.56415218
   0.40818130  0.38983214  0.55939428
   0.44322131  0.44030152  0.38094797
   0.44165308  0.52753553  0.38482992
   0.51778584  0.57978524  0.38146286
   0.27572401  0.40632142  0.58736597
   0.47229052  0.41842931  0.54976792
   0.40379938  0.31943339  0.55347542
   0.27271553  0.56322213  0.59263912
   0.46907832  0.56124132  0.55194060
   0.39699827  0.65688335  0.56170406
   0.38337064  0.40310570  0.38590869
   0.50389519  0.40448008  0.37373347
   0.38079920  0.56247104  0.39475633
   0.57938964  0.62432713  0.38019714
Direct configuration=    36
   0.33801034  0.43897361  0.57728974
   0.33611270  0.53372194  0.58001323
   0.40402326  0.58655225  0.56441013
   0.40811660  0.38973349  0.55961511
   0.44343950  0.44030965  0.38087592
   0.44179696  0.52752930  0.38471867
   0.51788176  0.57983827  0.38143507
   0.27565476  0.40637859  0.58737461
   0.47228615  0.41820357  0.55002386
   0.40361827  0.31932698  0.55382682
   0.27268450  0.56320462  0.59263204
   0.46912083  0.56138412  0.55227135
   0.39692744  0.65694315  0.56211395
   0.38360802  0.40306120  0.38574615
   0.50415355  0.40452284  0.37378325
   0.38089961  0.56243042  0.39448725
   0.57946992  0.62444724  0.38021293
Direct configuration=    37
   0.33799022  0.43897498  0.57733303
   0.33611014  0.53372578  0.58005884
   0.40402049  0.58659241  0.56458412
   0.40807267  0.38966550  0.55976402
   0.44358637  0.44030952  0.38082562
   0.44189334  0.52752806  0.38464246
   0.51796252  0.57988534  0.38141497
   0.27560847  0.40641726  0.58738041
   0.47228357  0.41805135  0.55019783
   0.40349647  0.31925527  0.55406534
   0.27266361  0.56319271  0.59262705
   0.46914995  0.56148084  0.55249543
   0.39687940  0.65698352  0.56239179
   0.38376786  0.40303219  0.38563368
   0.50432674  0.40455181  0.37381580
   0.38096625  0.56240367  0.39430280
   0.57951035  0.62451761  0.38022394
Direct configuration=    38
   0.33800161  0.43897455  0.57730597
   0.33611145  0.53372290  0.58002980
   0.40402123  0.58656729  0.56447166
   0.40810128  0.38970806  0.55966802
   0.44349008  0.44030387  0.38085420
   0.44183137  0.52753335  0.38468834
   0.51791362  0.57985691  0.38142588
   0.27563964  0.40639206  0.58737672
   0.47228621  0.41815149  0.55008650
   0.40357713  0.31930254  0.55391209
   0.27267752  0.56320031  0.59263013
   0.46913174  0.56141809  0.55235057
   0.39691046  0.65695691  0.56221236
   0.38366209  0.40305245  0.38570135
   0.50421134  0.40453328  0.37379237
   0.38092027  0.56242296  0.39441737
   0.57947875  0.62446640  0.38021620
Direct configuration=    39
   0.33798550  0.43897569  0.57734053
   0.33610923  0.53372568  0.58006605
   0.40401878  0.58659924  0.56461064
   0.40806620  0.38965403  0.55978721
   0.44360571  0.44030453  0.38081203
   0.44190869  0.52753222  0.38462538
   0.51797377  0.57989137  0.38140865
   0.27560308  0.40642264  0.58738130
   0.47228443  0.41803076  0.55022606
   0.40348096  0.31924546  0.55410310
   0.27266090  0.56319060  0.59262590
   0.46915497  0.56149524  0.55252955
   0.39687204  0.65698890  0.56243428
   0.38378774  0.40302999  0.38560854
   0.50434783  0.40455598  0.37381683
   0.38097217  0.56240248  0.39426709
   0.57951422  0.62452380  0.38022462
Direct configuration=    40
   0.33796565  0.43897610  0.57738690
   0.33610641  0.53372968  0.58011437
   0.40401574  0.58664050  0.56479119
   0.40802219  0.38958483  0.55994305
   0.44375301  0.44030605  0.38075227
   0.44200595  0.52753127  0.38453920
   0.51804260  0.57992884  0.38138402
   0.27555713  0.40646147  0.58738801
   0.47228312  0.41787773  0.55040675
   0.40335957  0.31917287  0.55434997
   0.27264014  0.56317827  0.59262098
   0.46918518  0.56159444  0.55275953
   0.39682268  0.65702977  0.56271983
   0.38394584  0.40300193  0.38548270
   0.50452074  0.40458481  0.37384505
   0.38103641  0.56237863  0.39406780
   0.57956292  0.62459792  0.38023330
Direct configuration=    41
   0.33797639  0.43897579  0.57736254
   0.33610788  0.53372736  0.58008879
   0.40401719  0.58661834  0.56469497
   0.40804606  0.38962213  0.55986044
   0.44367240  0.44030534  0.38078119
   0.44195245  0.52753155  0.38458238
   0.51800780  0.57991002  0.38139538
   0.27558214  0.40644032  0.58738464
   0.47228412  0.41796055  0.55031127
   0.40342585  0.31921187  0.55421903
   0.27265131  0.56318478  0.59262357
   0.46916902  0.56154150  0.55263686
   0.39684895  0.65700779  0.56256759
   0.38385900  0.40301782  0.38554562
   0.50442632  0.40456888  0.37382784
   0.38100061  0.56239254  0.39417007
   0.57953417  0.62455493  0.38022805
Direct configuration=    42
   0.33796628  0.43897643  0.57738561
   0.33610659  0.53372891  0.58011266
   0.40401541  0.58663889  0.56478576
   0.40802396  0.38958747  0.55993901
   0.44374515  0.44030587  0.38074941
   0.44200084  0.52753123  0.38453729
   0.51804399  0.57992991  0.38138182
   0.27555892  0.40645971  0.58738802
   0.47228337  0.41788323  0.55040396
   0.40336511  0.31917497  0.55434519
   0.27264056  0.56317834  0.59262086
   0.46918415  0.56159198  0.55275403
   0.39682370  0.65702846  0.56271300
   0.38393759  0.40300434  0.38547873
   0.50451246  0.40458301  0.37384082
   0.38103253  0.56238086  0.39406581
   0.57955831  0.62459114  0.38023248
Direct configuration=    43
   0.33794591  0.43897476  0.57744188
   0.33610386  0.53373444  0.58017100
   0.40401375  0.58668479  0.56499318
   0.40797811  0.38951097  0.56011937
   0.44390783  0.44031130  0.38067251
   0.44210413  0.52752918  0.38443102
   0.51811443  0.57996670  0.38135000
   0.27550916  0.40650166  0.58739691
   0.47228262  0.41771727  0.55060559
   0.40323405  0.31909650  0.55461959
   0.27261822  0.56316525  0.59261652
   0.46921759  0.56170105  0.55300851
   0.39676963  0.65707270  0.56302879
   0.38410885  0.40297410  0.38533129
   0.50469995  0.40461578  0.37386746
   0.38110176  0.56235658  0.39383786
   0.57960892  0.62466877  0.38023818
Direct configuration=    44
   0.33795096  0.43897584  0.57742877
   0.33610503  0.53373227  0.58015702
   0.40401386  0.58667336  0.56494379
   0.40798981  0.38952985  0.56007700
   0.44386483  0.44030816  0.38068720
   0.44207745  0.52753096  0.38445289
   0.51809887  0.57995873  0.38135500
   0.27552133  0.40649104  0.58739508
   0.47228290  0.41775771  0.55055953
   0.40326698  0.31911517  0.55455609
   0.27262326  0.56316826  0.59261753
   0.46920947  0.56167532  0.55294886
   0.39678225  0.65706209  0.56295471
   0.38406586  0.40298289  0.38536017
   0.50465292  0.40460731  0.37385820
   0.38108373  0.56236337  0.39388591
   0.57959570  0.62464766  0.38023621
Direct configuration=    45
   0.33794476  0.43897613  0.57744485
   0.33610438  0.53373316  0.58017349