   17   17 5000    1
  0.2149333E+03  0.1540225E-08  0.1540225E-08  0.1540225E-08  0.1000000E-15
  1.000000000000000E-004
  CAR 
 unknown system                          
     42      1     30
 
  0.0000000E+00  0.0000000E+00  0.0000000E+00  0.1000000E+01
      1        -22.260445   1.000000
      2        -21.139433   1.000000
      3        -19.109604   1.000000
      4        -18.663631   1.000000
      5        -15.976622   1.000000
      6        -15.429916   1.000000
      7        -12.992244   1.000000
      8        -12.830024   1.000000
      9        -12.201324   1.000000
     10        -10.823874   1.000000
     11        -10.535066   1.000000
     12        -10.331283   1.000000
     13         -9.850782   1.000000
     14         -9.540841   1.000000
     15         -8.735707   1.000000
     16         -8.486142   1.000000
     17         -8.255754   1.000000
     18         -7.829301   1.000000
     19         -7.584870   1.000000
     20         -7.478474   1.000000
     21         -6.140105   1.000000
     22         -0.990107   0.000000
     23         -0.693733   0.000000
     24         -0.188196   0.000000
     25         -0.132301   0.000000
     26         -0.019077   0.000000
     27          0.083822   0.000000
     28          0.180250   0.000000
     29          0.373015   0.000000
     30          0.467131   0.000000
