       N       E                     dE             d eps       ncg     rms          rms(c)
DAV:   1     0.340288783440E+03    0.34029E+03   -0.10132E+04    76   0.668E+02
DAV:   2     0.379078610744E+02   -0.30238E+03   -0.29482E+03   104   0.137E+02
DAV:   3    -0.999812498802E+02   -0.13789E+03   -0.13747E+03    80   0.106E+02
DAV:   4    -0.113985189403E+03   -0.14004E+02   -0.13975E+02    88   0.462E+01
DAV:   5    -0.114145341230E+03   -0.16015E+00   -0.15936E+00    80   0.626E+00    0.170E+01
RMM:   6    -0.105705089507E+03    0.84403E+01   -0.11570E+01    60   0.138E+01    0.927E+00
RMM:   7    -0.103631242627E+03    0.20738E+01   -0.10657E+01    60   0.130E+01    0.403E+00
RMM:   8    -0.103442030574E+03    0.18921E+00   -0.77205E-01    60   0.452E+00    0.247E+00
RMM:   9    -0.103335505854E+03    0.10652E+00   -0.50743E-01    60   0.309E+00    0.747E-01
RMM:  10    -0.103329313579E+03    0.61923E-02   -0.77882E-02    63   0.128E+00    0.346E-01
RMM:  11    -0.103341057580E+03   -0.11744E-01   -0.14182E-01    60   0.140E+00    0.470E-01
RMM:  12    -0.103334619653E+03    0.64379E-02   -0.13028E-02    61   0.583E-01    0.284E-01
RMM:  13    -0.103339828017E+03   -0.52084E-02   -0.26877E-02    60   0.627E-01    0.111E-01
RMM:  14    -0.103343136881E+03   -0.33089E-02   -0.50736E-03    61   0.320E-01    0.798E-02
RMM:  15    -0.103353884302E+03   -0.10747E-01   -0.30244E-03    61   0.206E-01    0.311E-02
RMM:  16    -0.103357446048E+03   -0.35617E-02   -0.11462E-03    65   0.118E-01    0.321E-02
RMM:  17    -0.103361495952E+03   -0.40499E-02   -0.98610E-04    60   0.109E-01    0.201E-02
RMM:  18    -0.103361957016E+03   -0.46106E-03   -0.25248E-04    60   0.492E-02    0.179E-02
RMM:  19    -0.103362614032E+03   -0.65702E-03   -0.15523E-04    59   0.472E-02    0.135E-02
RMM:  20    -0.103362821735E+03   -0.20770E-03   -0.30927E-05    48   0.216E-02    0.799E-03
RMM:  21    -0.103362954361E+03   -0.13263E-03   -0.22913E-05    42   0.168E-02    0.272E-03
RMM:  22    -0.103362987891E+03   -0.33530E-04   -0.38245E-06    39   0.886E-03    0.166E-03
RMM:  23    -0.103363013570E+03   -0.25679E-04   -0.14172E-06    34   0.545E-03    0.161E-03
RMM:  24    -0.103363023841E+03   -0.10271E-04   -0.66235E-07    30   0.405E-03    0.656E-04
RMM:  25    -0.103363028045E+03   -0.42041E-05   -0.35020E-07    24   0.356E-03
   1 F= -.10355927E+03 E0= -.10355927E+03  d E =-.103559E+03
       N       E                     dE             d eps       ncg     rms          rms(c)
DAV:   1    -0.103370600510E+03   -0.75767E-02   -0.28542E-01    88   0.318E+00    0.131E-01
RMM:   2    -0.103370739844E+03   -0.13933E-03   -0.38510E-03    60   0.364E-01    0.824E-02
RMM:   3    -0.103370730694E+03    0.91499E-05   -0.92038E-04    60   0.171E-01    0.221E-02
RMM:   4    -0.103370751194E+03   -0.20500E-04   -0.19131E-04    64   0.794E-02    0.148E-02
RMM:   5    -0.103370755021E+03   -0.38265E-05   -0.47188E-05    49   0.387E-02
   2 F= -.10356704E+03 E0= -.10356704E+03  d E =-.777415E-02
       N       E                     dE             d eps       ncg     rms          rms(c)
DAV:   1    -0.103376711871E+03   -0.59607E-02   -0.36900E-01    66   0.359E+00    0.161E-01
RMM:   2    -0.103376852585E+03   -0.14071E-03   -0.43477E-03    60   0.408E-01    0.977E-02
RMM:   3    -0.103376853095E+03   -0.50990E-06   -0.10271E-03    60   0.180E-01    0.281E-02
RMM:   4    -0.103376882920E+03   -0.29825E-04   -0.25285E-04    66   0.855E-02    0.180E-02
RMM:   5    -0.103376889457E+03   -0.65367E-05   -0.72235E-05    61   0.431E-02
   3 F= -.10357324E+03 E0= -.10357324E+03  d E =-.619210E-02
       N       E                     dE             d eps       ncg     rms          rms(c)
DAV:   1    -0.103379528423E+03   -0.26455E-02   -0.12510E-01    72   0.209E+00    0.949E-02
RMM:   2    -0.103379567627E+03   -0.39205E-04   -0.14092E-03    60   0.229E-01    0.578E-02
RMM:   3    -0.103379572892E+03   -0.52647E-05   -0.34397E-04    60   0.103E-01    0.164E-02
RMM:   4    -0.103379583126E+03   -0.10234E-04   -0.75295E-05    60   0.482E-02    0.109E-02
RMM:   5    -0.103379586820E+03   -0.36934E-05   -0.15566E-05    40   0.224E-02
   4 F= -.10357595E+03 E0= -.10357595E+03  d E =-.271701E-02
       N       E                     dE             d eps       ncg     rms          rms(c)
DAV:   1    -0.103381205219E+03   -0.16221E-02   -0.82058E-02    72   0.168E+00    0.767E-02
RMM:   2    -0.103381234752E+03   -0.29533E-04   -0.88983E-04    60   0.184E-01    0.470E-02
RMM:   3    -0.103381242241E+03   -0.74892E-05   -0.22014E-04    60   0.825E-02    0.969E-03
RMM:   4    -0.103381248445E+03   -0.62042E-05   -0.49852E-05    51   0.379E-02
   5 F= -.10357764E+03 E0= -.10357764E+03  d E =-.168647E-02
       N       E                     dE             d eps       ncg     rms          rms(c)
DAV:   1    -0.103383416156E+03   -0.21739E-02   -0.45574E-01    60   0.392E+00    0.178E-01
RMM:   2    -0.103383640949E+03   -0.22479E-03   -0.48861E-03    60   0.431E-01    0.110E-01
RMM:   3    -0.103383671652E+03   -0.30704E-04   -0.11001E-03    60   0.189E-01    0.217E-02
RMM:   4    -0.103383699196E+03   -0.27544E-04   -0.24708E-04    65   0.856E-02    0.149E-02
RMM:   5    -0.103383705178E+03   -0.59813E-05   -0.54326E-05    55   0.408E-02
   6 F= -.10358013E+03 E0= -.10358013E+03  d E =-.248629E-02
       N       E                     dE             d eps       ncg     rms          rms(c)
DAV:   1    -0.103385832343E+03   -0.21331E-02   -0.14061E+00    60   0.689E+00    0.311E-01
RMM:   2    -0.103386535123E+03   -0.70278E-03   -0.14546E-02    60   0.744E-01    0.192E-01
RMM:   3    -0.103386599101E+03   -0.63979E-04   -0.32593E-03    60   0.324E-01    0.358E-02
RMM:   4    -0.103386674236E+03   -0.75134E-04   -0.71818E-04    65   0.146E-01    0.239E-02
RMM:   5    -0.103386685896E+03   -0.11660E-04   -0.19725E-04    63   0.725E-02    0.777E-03
RMM:   6    -0.103386689154E+03   -0.32585E-05   -0.27185E-05    42   0.301E-02
   7 F= -.10358318E+03 E0= -.10358318E+03  d E =-.305618E-02
       N       E                     dE             d eps       ncg     rms          rms(c)
DAV:   1    -0.103387289788E+03   -0.60389E-03   -0.21211E-01    60   0.268E+00    0.121E-01
RMM:   2    -0.103387386463E+03   -0.96675E-04   -0.22905E-03    60   0.292E-01    0.749E-02
RMM:   3    -0.103387400770E+03   -0.14307E-04   -0.47598E-04    60   0.126E-01    0.193E-02
RMM:   4    -0.103387414984E+03   -0.14214E-04   -0.10641E-04    60   0.582E-02    0.108E-02
RMM:   5    -0.103387420475E+03   -0.54918E-05   -0.26150E-05    43   0.277E-02
   8 F= -.10358392E+03 E0= -.10358392E+03  d E =-.735262E-03
       N       E                     dE             d eps       ncg     rms          rms(c)
DAV:   1    -0.103387860372E+03   -0.44539E-03   -0.38030E-01    60   0.358E+00    0.162E-01
RMM:   2    -0.103388036396E+03   -0.17602E-03   -0.40081E-03    60   0.390E-01    0.996E-02
RMM:   3    -0.103388062336E+03   -0.25939E-04   -0.87521E-04    60   0.169E-01    0.213E-02
RMM:   4    -0.103388085522E+03   -0.23186E-04   -0.20534E-04    65   0.777E-02    0.131E-02
RMM:   5    -0.103388089419E+03   -0.38971E-05   -0.50937E-05    49   0.371E-02
   9 F= -.10358462E+03 E0= -.10358462E+03  d E =-.703581E-03
       N       E                     dE             d eps       ncg     rms          rms(c)
DAV:   1    -0.103388225566E+03   -0.14004E-03   -0.97962E-02    60   0.182E+00    0.820E-02
RMM:   2    -0.103388268183E+03   -0.42617E-04   -0.10445E-03    60   0.198E-01    0.505E-02
RMM:   3    -0.103388278260E+03   -0.10076E-04   -0.22379E-04    60   0.862E-02    0.116E-02
RMM:   4    -0.103388284593E+03   -0.63332E-05   -0.48853E-05    52   0.394E-02
  10 F= -.10358482E+03 E0= -.10358482E+03  d E =-.196966E-03
       N       E                     dE             d eps       ncg     rms          rms(c)
DAV:   1    -0.103388250312E+03    0.27948E-04   -0.19570E-01    60   0.256E+00    0.116E-01
RMM:   2    -0.103388343538E+03   -0.93226E-04   -0.20293E-03    60   0.277E-01    0.718E-02
RMM:   3    -0.103388363795E+03   -0.20257E-04   -0.42980E-04    60   0.119E-01    0.134E-02
RMM:   4    -0.103388375211E+03   -0.11416E-04   -0.10059E-04    61   0.542E-02    0.877E-03
RMM:   5    -0.103388377512E+03   -0.23018E-05   -0.18778E-05    41   0.229E-02
  11 F= -.10358493E+03 E0= -.10358493E+03  d E =-.109899E-03
       N       E                     dE             d eps       ncg     rms          rms(c)
DAV:   1    -0.103388161534E+03    0.21368E-03   -0.28200E-01    60   0.306E+00    0.138E-01
RMM:   2    -0.103388299785E+03   -0.13825E-03   -0.28331E-03    60   0.328E-01    0.852E-02
RMM:   3    -0.103388327904E+03   -0.28119E-04   -0.59222E-04    60   0.141E-01    0.149E-02
RMM:   4    -0.103388343413E+03   -0.15510E-04   -0.14089E-04    65   0.635E-02    0.951E-03
RMM:   5    -0.103388346238E+03   -0.28248E-05   -0.27580E-05    42   0.288E-02
  12 F= -.10358491E+03 E0= -.10358491E+03  d E =0.223204E-04
       N       E                     dE             d eps       ncg     rms          rms(c)
DAV:   1    -0.103388238757E+03    0.10466E-03   -0.76773E-02    60   0.160E+00    0.730E-02
RMM:   2    -0.103388272584E+03   -0.33827E-04   -0.80423E-04    60   0.173E-01    0.451E-02
RMM:   3    -0.103388281631E+03   -0.90468E-05   -0.16222E-04    60   0.744E-02    0.100E-02
RMM:   4    -0.103388286185E+03   -0.45539E-05   -0.35192E-05    48   0.341E-02
  13 F= -.10358484E+03 E0= -.10358484E+03  d E =0.636345E-04
       N       E                     dE             d eps       ncg     rms          rms(c)
DAV:   1    -0.103388095159E+03    0.18647E-03   -0.11979E-01    60   0.200E+00    0.907E-02
RMM:   2    -0.103388153719E+03   -0.58561E-04   -0.12737E-03    60   0.218E-01    0.562E-02
RMM:   3    -0.103388167946E+03   -0.14227E-04   -0.26239E-04    61   0.935E-02    0.117E-02
RMM:   4    -0.103388174749E+03   -0.68027E-05   -0.59307E-05    53   0.423E-02
  14 F= -.10358474E+03 E0= -.10358474E+03  d E =0.100546E-03
       N       E                     dE             d eps       ncg     rms          rms(c)
DAV:   1    -0.103388112495E+03    0.55451E-04   -0.42113E-02    60   0.119E+00    0.543E-02
RMM:   2    -0.103388133454E+03   -0.20959E-04   -0.45785E-04    60   0.130E-01    0.337E-02
RMM:   3    -0.103388139539E+03   -0.60849E-05   -0.89208E-05    59   0.555E-02
  15 F= -.10358470E+03 E0= -.10358470E+03  d E =0.417199E-04
       N       E                     dE             d eps       ncg     rms          rms(c)
DAV:   1    -0.103388021664E+03    0.11179E-03   -0.54211E-02    60   0.134E+00    0.610E-02
RMM:   2    -0.103388052573E+03   -0.30909E-04   -0.60232E-04    60   0.149E-01    0.379E-02
RMM:   3    -0.103388061873E+03   -0.92997E-05   -0.11827E-04    60   0.639E-02    0.787E-03
RMM:   4    -0.103388065304E+03   -0.34305E-05   -0.28094E-05    44   0.294E-02
  16 F= -.10358463E+03 E0= -.10358463E+03  d E =0.718871E-04
       N       E                     dE             d eps       ncg     rms          rms(c)
DAV:   1    -0.103387969090E+03    0.92783E-04   -0.58784E-02    60   0.140E+00    0.631E-02
RMM:   2    -0.103388000266E+03   -0.31175E-04   -0.61602E-04    60   0.151E-01    0.390E-02
RMM:   3    -0.103388009391E+03   -0.91250E-05   -0.11774E-04    60   0.641E-02    0.684E-03
RMM:   4    -0.103388012620E+03   -0.32290E-05   -0.26825E-05    43   0.290E-02
  17 F= -.10358457E+03 E0= -.10358457E+03  d E =0.595454E-04
       N       E                     dE             d eps       ncg     rms          rms(c)
DAV:   1    -0.103387956464E+03    0.52926E-04   -0.30003E-02    60   0.100E+00    0.450E-02
RMM:   2    -0.103387972366E+03   -0.15901E-04   -0.32084E-04    60   0.108E-01    0.277E-02
RMM:   3    -0.103387977864E+03   -0.54983E-05   -0.61009E-05    55   0.461E-02
  18 F= -.10358453E+03 E0= -.10358453E+03  d E =0.416441E-04
       N       E                     dE             d eps       ncg     rms          rms(c)
DAV:   1    -0.103387898852E+03    0.73514E-04   -0.31642E-02    60   0.103E+00    0.462E-02
RMM:   2    -0.103387917828E+03   -0.18976E-04   -0.35950E-04    60   0.114E-01    0.287E-02
RMM:   3    -0.103387924419E+03   -0.65917E-05   -0.67672E-05    56   0.489E-02
  19 F= -.10358447E+03 E0= -.10358447E+03  d E =0.573902E-04
       N       E                     dE             d eps       ncg     rms          rms(c)
DAV:   1    -0.103387841368E+03    0.76459E-04   -0.39396E-02    60   0.115E+00    0.519E-02
RMM:   2    -0.103387862946E+03   -0.21578E-04   -0.45280E-04    60   0.128E-01    0.322E-02
RMM:   3    -0.103387869561E+03   -0.66149E-05   -0.85174E-05    57   0.548E-02
  20 F= -.10358440E+03 E0= -.10358440E+03  d E =0.677600E-04
       N       E                     dE             d eps       ncg     rms          rms(c)
DAV:   1    -0.103387780509E+03    0.82438E-04   -0.35345E-02    60   0.109E+00    0.490E-02
RMM:   2    -0.103387801396E+03   -0.20888E-04   -0.41639E-04    60   0.122E-01    0.304E-02
RMM:   3    -0.103387808602E+03   -0.72054E-05   -0.80246E-05    58   0.527E-02
  21 F= -.10358434E+03 E0= -.10358434E+03  d E =0.642031E-04
       N       E                     dE             d eps       ncg     rms          rms(c)
DAV:   1    -0.103387697686E+03    0.10371E-03   -0.44581E-02    60   0.122E+00    0.545E-02
RMM:   2    -0.103387724160E+03   -0.26474E-04   -0.49824E-04    60   0.134E-01    0.338E-02
RMM:   3    -0.103387733190E+03   -0.90304E-05   -0.93184E-05    59   0.575E-02
  22 F= -.10358425E+03 E0= -.10358425E+03  d E =0.850330E-04
       N       E                     dE             d eps       ncg     rms          rms(c)
DAV:   1    -0.103387638986E+03    0.85173E-04   -0.33887E-02    60   0.106E+00    0.472E-02
RMM:   2    -0.103387660259E+03   -0.21272E-04   -0.39342E-04    60   0.118E-01    0.294E-02
RMM:   3    -0.103387667848E+03   -0.75891E-05   -0.73583E-05    56   0.511E-02
  23 F= -.10358418E+03 E0= -.10358418E+03  d E =0.747436E-04
       N       E                     dE             d eps       ncg     rms          rms(c)
DAV:   1    -0.103387687270E+03   -0.27011E-04   -0.32465E-04    88   0.108E-01    0.637E-03
RMM:   2    -0.103387687501E+03   -0.23051E-06   -0.58250E-06    39   0.130E-02
  24 F= -.10358420E+03 E0= -.10358420E+03  d E =-.212467E-04
       N       E                     dE             d eps       ncg     rms          rms(c)
DAV:   1    -0.103387688920E+03   -0.16502E-05   -0.88371E-04    66   0.171E-01    0.714E-03
RMM:   2    -0.103387689747E+03   -0.82671E-06   -0.11702E-05    39   0.193E-02
  25 F= -.10358420E+03 E0= -.10358420E+03  d E =0.617409E-06
       N       E                     dE             d eps       ncg     rms          rms(c)
DAV:   1    -0.103387694400E+03   -0.54798E-05   -0.82410E-04    72   0.164E-01    0.852E-03
RMM:   2    -0.103387694919E+03   -0.51892E-06   -0.11101E-05    38   0.186E-02
  26 F= -.10358420E+03 E0= -.10358420E+03  d E =-.408718E-05
       N       E                     dE             d eps       ncg     rms          rms(c)
DAV:   1    -0.103387534553E+03    0.15985E-03   -0.19975E-01    60   0.254E+00    0.110E-01
RMM:   2    -0.103387656081E+03   -0.12153E-03   -0.22888E-03    60   0.274E-01    0.673E-02
RMM:   3    -0.103387692100E+03   -0.36019E-04   -0.39834E-04    60   0.118E-01    0.152E-02
RMM:   4    -0.103387703073E+03   -0.10973E-04   -0.92204E-05    58   0.538E-02    0.655E-03
RMM:   5    -0.103387705999E+03   -0.29259E-05   -0.19632E-05    42   0.247E-02
  27 F= -.10358418E+03 E0= -.10358418E+03  d E =0.205260E-04
       N       E                     dE             d eps       ncg     rms          rms(c)
DAV:   1    -0.103387717435E+03   -0.14363E-04   -0.37430E-03    72   0.356E-01    0.211E-02
RMM:   2    -0.103387717534E+03   -0.98999E-07   -0.65245E-05    49   0.441E-02
  28 F= -.10358420E+03 E0= -.10358420E+03  d E =-.196154E-04
       N       E                     dE             d eps       ncg     rms          rms(c)
DAV:   1    -0.103387738806E+03   -0.21371E-04   -0.19740E-03    66   0.254E-01    0.945E-03
RMM:   2    -0.103387741255E+03   -0.24486E-05   -0.29964E-05    42   0.301E-02
  29 F= -.10358422E+03 E0= -.10358422E+03  d E =-.178987E-04
       N       E                     dE             d eps       ncg     rms          rms(c)
DAV:   1    -0.103387759487E+03   -0.20681E-04   -0.49069E-04    72   0.126E-01    0.730E-03
RMM:   2    -0.103387759629E+03   -0.14197E-06   -0.80104E-06    38   0.153E-02
  30 F= -.10358424E+03 E0= -.10358424E+03  d E =-.156688E-04
       N       E                     dE             d eps       ncg     rms          rms(c)
DAV:   1    -0.103387800682E+03   -0.41195E-04   -0.28767E-03    60   0.302E-01    0.123E-02
RMM:   2    -0.103387802872E+03   -0.21895E-05   -0.39211E-05    45   0.339E-02
  31 F= -.10358427E+03 E0= -.10358427E+03  d E =-.369181E-04
       N       E                     dE             d eps       ncg     rms          rms(c)
DAV:   1    -0.103387899964E+03   -0.99282E-04   -0.36885E-02    60   0.108E+00    0.438E-02
RMM:   2    -0.103387927475E+03   -0.27511E-04   -0.50428E-04    60   0.122E-01    0.271E-02
RMM:   3    -0.103387937437E+03   -0.99622E-05   -0.82058E-05    53   0.525E-02
  32 F= -.10358439E+03 E0= -.10358439E+03  d E =-.113685E-03
       N       E                     dE             d eps       ncg     rms          rms(c)
DAV:   1    -0.103387958322E+03   -0.30847E-04   -0.57198E-04    66   0.136E-01    0.821E-03
RMM:   2    -0.103387958774E+03   -0.45106E-06   -0.14827E-05    41   0.204E-02
  33 F= -.10358440E+03 E0= -.10358440E+03  d E =-.168410E-04
       N       E                     dE             d eps       ncg     rms          rms(c)
DAV:   1    -0.103387963911E+03   -0.55890E-05   -0.79631E-05    82   0.487E-02    0.403E-03
RMM:   2    -0.103387964162E+03   -0.25019E-06   -0.21441E-06    29   0.747E-03
  34 F= -.10358441E+03 E0= -.10358441E+03  d E =-.596904E-05
       N       E                     dE             d eps       ncg     rms          rms(c)
DAV:   1    -0.103387978637E+03   -0.14726E-04   -0.23031E-04    72   0.846E-02    0.391E-03
RMM:   2    -0.103387978989E+03   -0.35193E-06   -0.34049E-06    34   0.972E-03
  35 F= -.10358442E+03 E0= -.10358442E+03  d E =-.128426E-04
       N       E                     dE             d eps       ncg     rms          rms(c)
DAV:   1    -0.103388068175E+03   -0.89537E-04   -0.13342E-02    60   0.643E-01    0.252E-02
RMM:   2    -0.103388078390E+03   -0.10215E-04   -0.18124E-04    60   0.718E-02    0.155E-02
RMM:   3    -0.103388081954E+03   -0.35644E-05   -0.28153E-05    44   0.306E-02
  36 F= -.10358451E+03 E0= -.10358451E+03  d E =-.879199E-04
       N       E                     dE             d eps       ncg     rms          rms(c)
DAV:   1    -0.103388143709E+03   -0.65319E-04   -0.60886E-03    60   0.435E-01    0.172E-02
RMM:   2    -0.103388148959E+03   -0.52505E-05   -0.90931E-05    49   0.512E-02
  37 F= -.10358456E+03 E0= -.10358456E+03  d E =-.557366E-04
       N       E                     dE             d eps       ncg     rms          rms(c)
DAV:   1    -0.103388103138E+03    0.40571E-04   -0.28800E-03    60   0.295E-01    0.982E-03
RMM:   2    -0.103388106243E+03   -0.31057E-05   -0.34037E-05    42   0.318E-02
  38 F= -.10358453E+03 E0= -.10358453E+03  d E =0.348259E-04
       N       E                     dE             d eps       ncg     rms          rms(c)
DAV:   1    -0.103388158146E+03   -0.55009E-04   -0.39818E-03    60   0.348E-01    0.116E-02
RMM:   2    -0.103388162008E+03   -0.38612E-05   -0.50894E-05    46   0.385E-02
  39 F= -.10358458E+03 E0= -.10358458E+03  d E =-.467337E-04
       N       E                     dE             d eps       ncg     rms          rms(c)
DAV:   1    -0.103388219024E+03   -0.60878E-04   -0.53753E-03    60   0.415E-01    0.185E-02
RMM:   2    -0.103388222322E+03   -0.32971E-05   -0.78954E-05    49   0.478E-02
  40 F= -.10358463E+03 E0= -.10358463E+03  d E =-.512713E-04
       N       E                     dE             d eps       ncg     rms          rms(c)
DAV:   1    -0.103388191788E+03    0.27237E-04   -0.18569E-03    60   0.240E-01    0.821E-03
RMM:   2    -0.103388193730E+03   -0.19420E-05   -0.25007E-05    41   0.274E-02
  41 F= -.10358460E+03 E0= -.10358460E+03  d E =0.247163E-04
       N       E                     dE             d eps       ncg     rms          rms(c)
DAV:   1    -0.103388225988E+03   -0.34200E-04   -0.14798E-03    66   0.214E-01    0.682E-03
RMM:   2    -0.103388227561E+03   -0.15732E-05   -0.18780E-05    40   0.236E-02
  42 F= -.10358463E+03 E0= -.10358463E+03  d E =-.281325E-04
       N       E                     dE             d eps       ncg     rms          rms(c)
DAV:   1    -0.103388290036E+03   -0.64048E-04   -0.59512E-03    60   0.437E-01    0.186E-02
RMM:   2    -0.103388294016E+03   -0.39804E-05   -0.84402E-05    49   0.499E-02
  43 F= -.10358469E+03 E0= -.10358469E+03  d E =-.567781E-04
       N       E                     dE             d eps       ncg     rms          rms(c)
DAV:   1    -0.103388281362E+03    0.86733E-05   -0.41706E-04    66   0.113E-01    0.358E-03
RMM:   2    -0.103388281987E+03   -0.62422E-06   -0.45048E-06    36   0.123E-02
  44 F= -.10358468E+03 E0= -.10358468E+03  d E =0.992228E-05
       N       E                     dE             d eps       ncg     rms          rms(c)
DAV:   1    -0.103388302780E+03   -0.21417E-04   -0.54274E-04    60   0.131E-01    0.465E-03
RMM:   2    -0.103388303334E+03   -0.55400E-06   -0.73679E-06    36   0.147E-02
  45 F= -.10358470E+03 E0= -.10358470E+03  d E =-.176988E-04
       N       E                     dE             d eps       ncg     rms          rms(c)
DAV:   1    -0.103388355108E+03   -0.52328E-04   -0.44379E-03    60   0.379E-01    0.159E-02
RMM:   2    -0.103388358220E+03   -0.31129E-05   -0.65164E-05    49   0.437E-02
  46 F= -.10358474E+03 E0= -.10358474E+03  d E =-.474524E-04
       N       E                     dE             d eps       ncg     rms          rms(c)
DAV:   1    -0.103388446453E+03   -0.91345E-04   -0.10004E-02    60   0.569E-01    0.247E-02
RMM:   2    -0.103388452500E+03   -0.60473E-05   -0.14032E-04    60   0.645E-02    0.154E-02
RMM:   3    -0.103388455570E+03   -0.30698E-05   -0.23991E-05    44   0.284E-02
  47 F= -.10358482E+03 E0= -.10358482E+03  d E =-.813261E-04
       N       E                     dE             d eps       ncg     rms          rms(c)
DAV:   1    -0.103388453188E+03   -0.68762E-06   -0.49927E-05    74   0.416E-02    0.218E-03
RMM:   2    -0.103388453378E+03   -0.19035E-06   -0.62088E-07    23   0.543E-03
  48 F= -.10358482E+03 E0= -.10358482E+03  d E =0.133699E-05
       N       E                     dE             d eps       ncg     rms          rms(c)
DAV:   1    -0.103388480652E+03   -0.27464E-04   -0.81557E-04    66   0.160E-01    0.613E-03
RMM:   2    -0.103388481396E+03   -0.74396E-06   -0.11487E-05    37   0.183E-02
  49 F= -.10358485E+03 E0= -.10358485E+03  d E =-.237575E-04
       N       E                     dE             d eps       ncg     rms          rms(c)
DAV:   1    -0.103388525507E+03   -0.44855E-04   -0.20136E-03    60   0.255E-01    0.108E-02
RMM:   2    -0.103388526848E+03   -0.13403E-05   -0.28110E-05    42   0.288E-02
  50 F= -.10358489E+03 E0= -.10358489E+03  d E =-.389728E-04
       N       E                     dE             d eps       ncg     rms          rms(c)
DAV:   1    -0.103388526659E+03   -0.11515E-05   -0.23351E-05    50   0.279E-02    0.177E-03
RMM:   2    -0.103388526871E+03   -0.21179E-06   -0.12176E-06    30   0.703E-03
  51 F= -.10358489E+03 E0= -.10358489E+03  d E =-.103676E-06
       N       E                     dE             d eps       ncg     rms          rms(c)
DAV:   1    -0.103388540126E+03   -0.13467E-04   -0.15752E-04    66   0.706E-02    0.278E-03
RMM:   2    -0.103388540355E+03   -0.22940E-06   -0.23352E-06    32   0.815E-03
  52 F= -.10358490E+03 E0= -.10358490E+03  d E =-.119756E-04
       N       E                     dE             d eps       ncg     rms          rms(c)
DAV:   1    -0.103388654698E+03   -0.11457E-03   -0.14002E-02    60   0.665E-01    0.262E-02
RMM:   2    -0.103388664700E+03   -0.10003E-04   -0.19590E-04    60   0.753E-02    0.161E-02
RMM:   3    -0.103388668075E+03   -0.33745E-05   -0.31044E-05    45   0.323E-02
  53 F= -.10358501E+03 E0= -.10358501E+03  d E =-.108708E-03
       N       E                     dE             d eps       ncg     rms          rms(c)
DAV:   1    -0.103388667148E+03   -0.24478E-05   -0.13114E-03    60   0.192E-01    0.169E-02
RMM:   2    -0.103388664717E+03    0.24312E-05   -0.33802E-05    44   0.292E-02
  54 F= -.10358501E+03 E0= -.10358501E+03  d E =-.179136E-05
       N       E                     dE             d eps       ncg     rms          rms(c)
DAV:   1    -0.103388688942E+03   -0.21793E-04   -0.48406E-04    66   0.119E-01    0.842E-03
RMM:   2    -0.103388689378E+03   -0.43656E-06   -0.13242E-05    39   0.184E-02
  55 F= -.10358503E+03 E0= -.10358503E+03  d E =-.204704E-04
       N       E                     dE             d eps       ncg     rms          rms(c)
DAV:   1    -0.103388705152E+03   -0.16211E-04   -0.18011E-04    66   0.765E-02    0.399E-03
RMM:   2    -0.103388705305E+03   -0.15250E-06   -0.31440E-06    32   0.952E-03
  56 F= -.10358504E+03 E0= -.10358504E+03  d E =-.143854E-04
       N       E                     dE             d eps       ncg     rms          rms(c)
DAV:   1    -0.103388786244E+03   -0.81092E-04   -0.51566E-03    60   0.406E-01    0.161E-02
RMM:   2    -0.103388789876E+03   -0.36315E-05   -0.71088E-05    50   0.457E-02
  57 F= -.10358512E+03 E0= -.10358512E+03  d E =-.753928E-04
       N       E                     dE             d eps       ncg     rms          rms(c)
DAV:   1    -0.103388840800E+03   -0.54556E-04   -0.22370E-03    60   0.272E-01    0.155E-02
RMM:   2    -0.103388840888E+03   -0.88044E-07   -0.40790E-05    46   0.347E-02
  58 F= -.10358516E+03 E0= -.10358516E+03  d E =-.414341E-04
       N       E                     dE             d eps       ncg     rms          rms(c)
DAV:   1    -0.103388869339E+03   -0.28538E-04   -0.11123E-03    66   0.189E-01    0.131E-02
RMM:   2    -0.103388869609E+03   -0.27092E-06   -0.27275E-05    43   0.275E-02
  59 F= -.10358519E+03 E0= -.10358519E+03  d E =-.296312E-04
       N       E                     dE             d eps       ncg     rms          rms(c)
DAV:   1    -0.103388909437E+03   -0.40098E-04   -0.95134E-04    60   0.176E-01    0.904E-03
RMM:   2    -0.103388909955E+03   -0.51814E-06   -0.15898E-05    38   0.215E-02
  60 F= -.10358523E+03 E0= -.10358523E+03  d E =-.349426E-04
       N       E                     dE             d eps       ncg     rms          rms(c)
DAV:   1    -0.103388924491E+03   -0.15054E-04   -0.99540E-05    72   0.587E-02    0.403E-03
RMM:   2    -0.103388924544E+03   -0.53476E-07   -0.16688E-06    29   0.718E-03
  61 F= -.10358524E+03 E0= -.10358524E+03  d E =-.131052E-04
       N       E                     dE             d eps       ncg     rms          rms(c)
DAV:   1    -0.103388986115E+03   -0.61625E-04   -0.23701E-03    60   0.276E-01    0.107E-02
RMM:   2    -0.103388987917E+03   -0.18021E-05   -0.32395E-05    42   0.309E-02
  62 F= -.10358529E+03 E0= -.10358529E+03  d E =-.565554E-04
       N       E                     dE             d eps       ncg     rms          rms(c)
DAV:   1    -0.103389053112E+03   -0.66997E-04   -0.24970E-03    60   0.286E-01    0.127E-02
RMM:   2    -0.103389054499E+03   -0.13871E-05   -0.35735E-05    44   0.325E-02
  63 F= -.10358535E+03 E0= -.10358535E+03  d E =-.590500E-04
       N       E                     dE             d eps       ncg     rms          rms(c)
DAV:   1    -0.103389052889E+03    0.22305E-06   -0.66748E-05    66   0.445E-02    0.372E-03
RMM:   2    -0.103389053024E+03   -0.13493E-06   -0.18604E-06    25   0.713E-03
  64 F= -.10358535E+03 E0= -.10358535E+03  d E =0.187596E-06
       N       E                     dE             d eps       ncg     rms          rms(c)
DAV:   1    -0.103389050455E+03    0.24338E-05   -0.37840E-06    42   0.116E-02    0.111E-03
RMM:   2    -0.103389050580E+03   -0.12418E-06   -0.12614E-07    15   0.326E-03
  65 F= -.10358535E+03 E0= -.10358535E+03  d E =0.207484E-05
       N       E                     dE             d eps       ncg     rms          rms(c)
DAV:   1    -0.103389058014E+03   -0.75585E-05   -0.18437E-04    66   0.824E-02    0.564E-03
RMM:   2    -0.103389058046E+03   -0.32328E-07   -0.41039E-06    36   0.114E-02
  66 F= -.10358536E+03 E0= -.10358536E+03  d E =-.742379E-05
       N       E                     dE             d eps       ncg     rms          rms(c)
DAV:   1    -0.103389065917E+03   -0.79030E-05   -0.60439E-04    66   0.148E-01    0.632E-03
RMM:   2    -0.103389066380E+03   -0.46340E-06   -0.85373E-06    37   0.167E-02
  67 F= -.10358537E+03 E0= -.10358537E+03  d E =-.690003E-05
       N       E                     dE             d eps       ncg     rms          rms(c)
DAV:   1    -0.103389078833E+03   -0.12916E-04   -0.17243E-03    66   0.241E-01    0.162E-02
RMM:   2    -0.103389077302E+03    0.15310E-05   -0.38902E-05    45   0.340E-02
  68 F= -.10358537E+03 E0= -.10358537E+03  d E =-.618951E-05
       N       E                     dE             d eps       ncg     rms          rms(c)
DAV:   1    -0.103389148032E+03   -0.69198E-04   -0.21114E-03    66   0.273E-01    0.120E-02
RMM:   2    -0.103389149356E+03   -0.13246E-05   -0.25932E-05    44   0.306E-02
  69 F= -.10358544E+03 E0= -.10358544E+03  d E =-.659735E-04
       N       E                     dE             d eps       ncg     rms          rms(c)
DAV:   1    -0.103389210845E+03   -0.62814E-04   -0.12469E-03    72   0.205E-01    0.124E-02
RMM:   2    -0.103389210863E+03   -0.17279E-07   -0.13090E-05    38   0.219E-02
  70 F= -.10358549E+03 E0= -.10358549E+03  d E =-.545840E-04
       N       E                     dE             d eps       ncg     rms          rms(c)
DAV:   1    -0.103389291647E+03   -0.80801E-04   -0.22787E-03    60   0.276E-01    0.137E-02
RMM:   2    -0.103389292350E+03   -0.70302E-06   -0.20933E-05    42   0.278E-02
  71 F= -.10358557E+03 E0= -.10358557E+03  d E =-.726901E-04
       N       E                     dE             d eps       ncg     rms          rms(c)
DAV:   1    -0.103389326010E+03   -0.34363E-04   -0.72323E-04    72   0.162E-01    0.869E-03
RMM:   2    -0.103389326356E+03   -0.34621E-06   -0.12803E-05    39   0.197E-02
  72 F= -.10358560E+03 E0= -.10358560E+03  d E =-.336159E-04
       N       E                     dE             d eps       ncg     rms          rms(c)
DAV:   1    -0.103389349282E+03   -0.23272E-04   -0.26331E-04    66   0.970E-02    0.597E-03
RMM:   2    -0.103389349349E+03   -0.66567E-07   -0.58701E-06    35   0.135E-02
  73 F= -.10358562E+03 E0= -.10358562E+03  d E =-.199121E-04
       N       E                     dE             d eps       ncg     rms          rms(c)
DAV:   1    -0.103389402219E+03   -0.52936E-04   -0.13053E-03    66   0.215E-01    0.967E-03
RMM:   2    -0.103389402914E+03   -0.69580E-06   -0.16277E-05    39   0.233E-02
  74 F= -.10358567E+03 E0= -.10358567E+03  d E =-.501136E-04
       N       E                     dE             d eps       ncg     rms          rms(c)
DAV:   1    -0.103389442918E+03   -0.40700E-04   -0.75709E-04    66   0.164E-01    0.752E-03
RMM:   2    -0.103389443256E+03   -0.33781E-06   -0.95860E-06    38   0.178E-02
  75 F= -.10358571E+03 E0= -.10358571E+03  d E =-.372700E-04
       N       E                     dE             d eps       ncg     rms          rms(c)
DAV:   1    -0.103389472322E+03   -0.29404E-04   -0.43882E-04    66   0.124E-01    0.540E-03
RMM:   2    -0.103389472589E+03   -0.26731E-06   -0.59344E-06    34   0.138E-02
  76 F= -.10358573E+03 E0= -.10358573E+03  d E =-.271716E-04
       N       E                     dE             d eps       ncg     rms          rms(c)
DAV:   1    -0.103389544299E+03   -0.71977E-04   -0.29837E-03    60   0.320E-01    0.128E-02
RMM:   2    -0.103389546045E+03   -0.17461E-05   -0.37449E-05    45   0.346E-02
  77 F= -.10358580E+03 E0= -.10358580E+03  d E =-.677736E-04
       N       E                     dE             d eps       ncg     rms          rms(c)
DAV:   1    -0.103389568652E+03   -0.24353E-04   -0.23016E-04    66   0.901E-02    0.548E-03
RMM:   2    -0.103389568667E+03   -0.15313E-07   -0.39638E-06    35   0.112E-02
  78 F= -.10358582E+03 E0= -.10358582E+03  d E =-.203655E-04
       N       E                     dE             d eps       ncg     rms          rms(c)
DAV:   1    -0.103389569528E+03   -0.87669E-06   -0.48379E-06    64   0.128E-02    0.985E-04
RMM:   2    -0.103389569587E+03   -0.58405E-07   -0.21336E-07    16   0.329E-03
  79 F= -.10358582E+03 E0= -.10358582E+03  d E =-.109205E-05
       N       E                     dE             d eps       ncg     rms          rms(c)
DAV:   1    -0.103389535060E+03    0.34468E-04   -0.65231E-04    60   0.145E-01    0.553E-03
RMM:   2    -0.103389535623E+03   -0.56237E-06   -0.85876E-06    37   0.160E-02
  80 F= -.10358579E+03 E0= -.10358579E+03  d E =0.311699E-04
       N       E                     dE             d eps       ncg     rms          rms(c)
DAV:   1    -0.103389677063E+03   -0.14200E-03   -0.13721E-02    60   0.668E-01    0.250E-02
RMM:   2    -0.103389687381E+03   -0.10318E-04   -0.17747E-04    60   0.738E-02    0.151E-02
RMM:   3    -0.103389690794E+03   -0.34132E-05   -0.28096E-05    45   0.310E-02
  81 F= -.10358593E+03 E0= -.10358593E+03  d E =-.142900E-03
       N       E                     dE             d eps       ncg     rms          rms(c)
DAV:   1    -0.103389722063E+03   -0.34682E-04   -0.50869E-04    60   0.130E-01    0.652E-03
RMM:   2    -0.103389722346E+03   -0.28263E-06   -0.99761E-06    39   0.174E-02
  82 F= -.10358596E+03 E0= -.10358596E+03  d E =-.278209E-04
       N       E                     dE             d eps       ncg     rms          rms(c)
DAV:   1    -0.103389719570E+03    0.24930E-05   -0.31950E-05    72   0.313E-02    0.218E-03
RMM:   2    -0.103389719683E+03   -0.11310E-06   -0.76296E-07    20   0.481E-03
  83 F= -.10358596E+03 E0= -.10358596E+03  d E =0.175098E-05
       N       E                     dE             d eps       ncg     rms          rms(c)
DAV:   1    -0.103389734233E+03   -0.14663E-04   -0.10941E-04    66   0.598E-02    0.258E-03
RMM:   2    -0.103389734334E+03   -0.10142E-06   -0.14625E-06    30   0.673E-03
  84 F= -.10358597E+03 E0= -.10358597E+03  d E =-.134237E-04
       N       E                     dE             d eps       ncg     rms          rms(c)
DAV:   1    -0.103389843570E+03   -0.10934E-03   -0.66731E-03    60   0.469E-01    0.188E-02
RMM:   2    -0.103389847975E+03   -0.44054E-05   -0.87048E-05    53   0.518E-02
  85 F= -.10358608E+03 E0= -.10358608E+03  d E =-.104280E-03
       N       E                     dE             d eps       ncg     rms          rms(c)
DAV:   1    -0.103389896084E+03   -0.52515E-04   -0.10074E-03    60   0.187E-01    0.105E-02
RMM:   2    -0.103389896274E+03   -0.18931E-06   -0.16769E-05    41   0.229E-02
  86 F= -.10358612E+03 E0= -.10358612E+03  d E =-.430665E-04
       N       E                     dE             d eps       ncg     rms          rms(c)
DAV:   1    -0.103390004196E+03   -0.10811E-03   -0.62440E-03    60   0.455E-01    0.192E-02
RMM:   2    -0.103390008137E+03   -0.39406E-05   -0.83869E-05    53   0.510E-02
  87 F= -.10358622E+03 E0= -.10358622E+03  d E =-.102960E-03
       N       E                     dE             d eps       ncg     rms          rms(c)
DAV:   1    -0.103390021049E+03   -0.16853E-04   -0.49006E-05    82   0.424E-02    0.492E-03
RMM:   2    -0.103390020977E+03    0.72688E-07   -0.70861E-07    27   0.512E-03
  88 F= -.10358624E+03 E0= -.10358624E+03  d E =-.121783E-04
       N       E                     dE             d eps       ncg     rms          rms(c)
DAV:   1    -0.103390019216E+03    0.18339E-05   -0.32978E-06    50   0.102E-02    0.554E-04
RMM:   2    -0.103390019340E+03   -0.12419E-06   -0.23909E-08    13   0.261E-03
  89 F= -.10358623E+03 E0= -.10358623E+03  d E =0.144093E-05
       N       E                     dE             d eps       ncg     rms          rms(c)
DAV:   1    -0.103390039669E+03   -0.20453E-04   -0.32328E-04    66   0.101E-01    0.389E-03
RMM:   2    -0.103390040009E+03   -0.34022E-06   -0.47547E-06    33   0.118E-02
  90 F= -.10358625E+03 E0= -.10358625E+03  d E =-.192096E-04
       N       E                     dE             d eps       ncg     rms          rms(c)
DAV:   1    -0.103390038883E+03    0.78548E-06   -0.49597E-06    64   0.136E-02    0.124E-03
RMM:   2    -0.103390038953E+03   -0.70133E-07   -0.16301E-07    14   0.339E-03
  91 F= -.10358625E+03 E0= -.10358625E+03  d E =0.122263E-05
       N       E                     dE             d eps       ncg     rms          rms(c)
DAV:   1    -0.103390013871E+03    0.25012E-04   -0.11618E-03    60   0.184E-01    0.654E-03
RMM:   2    -0.103390014931E+03   -0.10598E-05   -0.17454E-05    40   0.215E-02
  92 F= -.10358623E+03 E0= -.10358623E+03  d E =0.217459E-04
       N       E                     dE             d eps       ncg     rms          rms(c)
DAV:   1    -0.103390026734E+03   -0.12863E-04   -0.52204E-04    60   0.129E-01    0.584E-03
RMM:   2    -0.103390027049E+03   -0.31473E-06   -0.82160E-06    39   0.150E-02
  93 F= -.10358624E+03 E0= -.10358624E+03  d E =-.120698E-04
       N       E                     dE             d eps       ncg     rms          rms(c)
DAV:   1    -0.103390027872E+03   -0.11383E-05   -0.37859E-04    66   0.104E-01    0.457E-03
RMM:   2    -0.103390028225E+03   -0.35269E-06   -0.65891E-06    39   0.128E-02
  94 F= -.10358625E+03 E0= -.10358625E+03  d E =-.313854E-05
       N       E                     dE             d eps       ncg     rms          rms(c)
DAV:   1    -0.103390056875E+03   -0.29003E-04   -0.43031E-04    72   0.123E-01    0.578E-03
RMM:   2    -0.103390057044E+03   -0.16871E-06   -0.52563E-06    36   0.137E-02
  95 F= -.10358627E+03 E0= -.10358627E+03  d E =-.277234E-04
       N       E                     dE             d eps       ncg     rms          rms(c)
DAV:   1    -0.103390077474E+03   -0.20599E-04   -0.21430E-04    60   0.881E-02    0.526E-03
RMM:   2    -0.103390077525E+03   -0.51039E-07   -0.37548E-06    35   0.110E-02
  96 F= -.10358629E+03 E0= -.10358629E+03  d E =-.206937E-04
       N       E                     dE             d eps       ncg     rms          rms(c)
DAV:   1    -0.103390099429E+03   -0.21955E-04   -0.16498E-04    72   0.765E-02    0.431E-03
RMM:   2    -0.103390099482E+03   -0.52706E-07   -0.25083E-06    32   0.921E-03
  97 F= -.10358631E+03 E0= -.10358631E+03  d E =-.199020E-04
       N       E                     dE             d eps       ncg     rms          rms(c)
DAV:   1    -0.103390143232E+03   -0.43803E-04   -0.69471E-04    72   0.155E-01    0.722E-03
RMM:   2    -0.103390143560E+03   -0.32748E-06   -0.81985E-06    34   0.167E-02
  98 F= -.10358636E+03 E0= -.10358636E+03  d E =-.411955E-04
       N       E                     dE             d eps       ncg     rms          rms(c)
DAV:   1    -0.103390168676E+03   -0.25443E-04   -0.20476E-04    66   0.851E-02    0.443E-03
RMM:   2    -0.103390168761E+03   -0.85075E-07   -0.25039E-06    32   0.937E-03
  99 F= -.10358638E+03 E0= -.10358638E+03  d E =-.238452E-04
       N       E                     dE             d eps       ncg     rms          rms(c)
DAV:   1    -0.103390207815E+03   -0.39139E-04   -0.58851E-04    72   0.142E-01    0.613E-03
RMM:   2    -0.103390208164E+03   -0.34940E-06   -0.73389E-06    34   0.155E-02
 100 F= -.10358642E+03 E0= -.10358642E+03  d E =-.366553E-04
       N       E                     dE             d eps       ncg     rms          rms(c)
DAV:   1    -0.103390281214E+03   -0.73399E-04   -0.21325E-03    60   0.270E-01    0.117E-02
RMM:   2    -0.103390282342E+03   -0.11286E-05   -0.26424E-05    43   0.295E-02
 101 F= -.10358648E+03 E0= -.10358648E+03  d E =-.685371E-04
       N       E                     dE             d eps       ncg     rms          rms(c)
DAV:   1    -0.103390296755E+03   -0.15542E-04   -0.96623E-05    66   0.589E-02    0.385E-03
RMM:   2    -0.103390296793E+03   -0.38307E-07   -0.19365E-06    32   0.784E-03
 102 F= -.10358650E+03 E0= -.10358650E+03  d E =-.138441E-04
       N       E                     dE             d eps       ncg     rms          rms(c)
DAV:   1    -0.103390302151E+03   -0.53955E-05   -0.12872E-05    56   0.215E-02    0.130E-03
RMM:   2    -0.103390302181E+03   -0.30407E-07   -0.51612E-07    26   0.492E-03
 103 F= -.10358650E+03 E0= -.10358650E+03  d E =-.479901E-05
       N       E                     dE             d eps       ncg     rms          rms(c)
DAV:   1    -0.103390224234E+03    0.77916E-04   -0.26119E-03    60   0.292E-01    0.114E-02
RMM:   2    -0.103390226187E+03   -0.19533E-05   -0.33762E-05    43   0.320E-02
 104 F= -.10358643E+03 E0= -.10358643E+03  d E =0.702440E-04
       N       E                     dE             d eps       ncg     rms          rms(c)
DAV:   1    -0.103390407253E+03   -0.18302E-03   -0.18061E-02    60   0.767E-01    0.289E-02
RMM:   2    -0.103390420614E+03   -0.13361E-04   -0.22481E-04    60   0.839E-02    0.175E-02
RMM:   3    -0.103390424845E+03   -0.42307E-05   -0.35550E-05    47   0.351E-02
 105 F= -.10358662E+03 E0= -.10358662E+03  d E =-.182115E-03
       N       E                     dE             d eps       ncg     rms          rms(c)
DAV:   1    -0.103390557442E+03   -0.13683E-03   -0.97828E-03    60   0.569E-01    0.233E-02
RMM:   2    -0.103390564883E+03   -0.74408E-05   -0.14077E-04    59   0.666E-02    0.146E-02
RMM:   3    -0.103390567599E+03   -0.27160E-05   -0.24764E-05    45   0.288E-02
 106 F= -.10358675E+03 E0= -.10358675E+03  d E =-.133144E-03
       N       E                     dE             d eps       ncg     rms          rms(c)
DAV:   1    -0.103390495273E+03    0.69610E-04   -0.26334E-03    66   0.295E-01    0.118E-02
RMM:   2    -0.103390496778E+03   -0.15055E-05   -0.32010E-05    43   0.312E-02
 107 F= -.10358668E+03 E0= -.10358668E+03  d E =0.662373E-04
       N       E                     dE             d eps       ncg     rms          rms(c)
DAV:   1    -0.103390535392E+03   -0.40119E-04   -0.73175E-04    66   0.153E-01    0.444E-03
RMM:   2    -0.103390536222E+03   -0.82973E-06   -0.84888E-06    38   0.164E-02
 108 F= -.10358672E+03 E0= -.10358672E+03  d E =-.360449E-04
