unknown system                          
           1
    15.402250    0.000000    0.000000
     0.000000   15.402250    0.000000
     0.000000    0.000000   15.402250
   C    H    N 
     7     9     1
Direct configuration=     1
   0.33401592  0.44176759  0.56239013
   0.33378516  0.52835693  0.56994779
   0.41574930  0.57813269  0.55709845
   0.41586460  0.39278083  0.54635096
   0.48655213  0.44268725  0.49534590
   0.46565184  0.53857882  0.47983205
   0.54403160  0.58688736  0.46036991
   0.27501820  0.40399053  0.57191139
   0.44585683  0.37347650  0.60817202
   0.40065557  0.33145411  0.51398157
   0.27390224  0.56320301  0.58378944
   0.45941571  0.57418329  0.61307147
   0.40295461  0.64717351  0.54614003
   0.49893181  0.41196962  0.43247822
   0.54757044  0.43825613  0.53093541
   0.42287110  0.54317853  0.42313868
   0.60815026  0.62460229  0.44628022
Direct configuration=     2
   0.33400489  0.44182197  0.56256256
   0.33367402  0.52818578  0.56999335
   0.41581856  0.57823439  0.55697424
   0.41603098  0.39273995  0.54626853
   0.48647217  0.44250965  0.49512209
   0.46543550  0.53865978  0.47969099
   0.54407584  0.58687592  0.46028766
   0.27492052  0.40395595  0.57186324
   0.44591123  0.37379221  0.60834064
   0.40080142  0.33128357  0.51415234
   0.27381422  0.56324641  0.58373700
   0.45944795  0.57411009  0.61328259
   0.40296988  0.64724567  0.54613120
   0.49844805  0.41192158  0.43218693
   0.54768026  0.43812509  0.53055790
   0.42272788  0.54335367  0.42294717
   0.60825525  0.62461070  0.44619971
Direct configuration=     3
   0.33400329  0.44167610  0.56275363
   0.33357753  0.52819880  0.57006219
   0.41587834  0.57828634  0.55692028
   0.41618835  0.39269483  0.54624210
   0.48636985  0.44235619  0.49481364
   0.46523259  0.53874017  0.47948070
   0.54416650  0.58688617  0.46014671
   0.27481556  0.40392248  0.57180055
   0.44598227  0.37423504  0.60855351
   0.40100358  0.33103584  0.51439269
   0.27370610  0.56328662  0.58366381
   0.45944084  0.57401970  0.61349622
   0.40298548  0.64736650  0.54611377
   0.49777059  0.41183826  0.43174043
   0.54781654  0.43794085  0.52999298
   0.42251625  0.54360418  0.42266774
   0.60832731  0.62457468  0.44610234
Direct configuration=     4
   0.33401134  0.44164405  0.56285478
   0.33354483  0.52816449  0.57009601
   0.41590040  0.57831301  0.55691602
   0.41625675  0.39266044  0.54625406
   0.48630809  0.44229606  0.49461770
   0.46514846  0.53878114  0.47934554
   0.54415624  0.58685942  0.46006571
   0.27475109  0.40389564  0.57176773
   0.44602709  0.37450007  0.60867812
   0.40112978  0.33088522  0.51454357
   0.27363631  0.56331243  0.58362271
   0.45942068  0.57396978  0.61359792
   0.40299921  0.64743136  0.54610537
   0.49735736  0.41178349  0.43146020
   0.54789321  0.43782855  0.52963177
   0.42238993  0.54375913  0.42250283
   0.60840674  0.62457244  0.44603427
Direct configuration=     5
   0.33401930  0.44163782  0.56291787
   0.33353748  0.52813095  0.57012015
   0.41590158  0.57832761  0.55693706
   0.41628380  0.39263090  0.54629253
   0.48625561  0.44227463  0.49444429
   0.46510486  0.53880339  0.47922927
   0.54417790  0.58686252  0.45997853
   0.27470572  0.40387327  0.57174593
   0.44606695  0.37471398  0.60877839
   0.40123756  0.33076066  0.51467616
   0.27358416  0.56332775  0.58359052
   0.45938699  0.57393493  0.61365130
   0.40301493  0.64747253  0.54610203
   0.49701094  0.41173429  0.43121885
   0.54794945  0.43773502  0.52930692
   0.42229025  0.54389118  0.42237613
   0.60842264  0.62454003  0.44598680
Direct configuration=     6
   0.33400281  0.44153833  0.56300441
   0.33351836  0.52817057  0.57018431
   0.41587781  0.57833786  0.55697429
   0.41630380  0.39259287  0.54641244
   0.48611266  0.44223963  0.49401689
   0.46503336  0.53886152  0.47896917
   0.54414466  0.58684159  0.45975897
   0.27464961  0.40384889  0.57170809
   0.44616817  0.37517953  0.60901372
   0.40148744  0.33048439  0.51500604
   0.27351779  0.56332185  0.58351589
   0.45928638  0.57387349  0.61372031
   0.40305896  0.64752625  0.54610768
   0.49620538  0.41162001  0.43065873
   0.54806429  0.43752053  0.52849067
   0.42209082  0.54420310  0.42213188
   0.60848030  0.62447818  0.44586530
Direct configuration=     7
   0.33397880  0.44153222  0.56316136
   0.33347776  0.52806169  0.57027437
   0.41586343  0.57836719  0.55695016
   0.41639518  0.39253618  0.54656552
   0.48582303  0.44212051  0.49326974
   0.46482592  0.53897277  0.47854206
   0.54415221  0.58685306  0.45935061
   0.27452541  0.40379604  0.57165204
   0.44634770  0.37598784  0.60944137
   0.40192784  0.33001400  0.51560919
   0.27338773  0.56332445  0.58339671
   0.45913082  0.57376979  0.61386464
   0.40313740  0.64761416  0.54612108
   0.49477421  0.41142406  0.42967918
   0.54826788  0.43714143  0.52702071
   0.42175195  0.54475632  0.42172537
   0.60853147  0.62434375  0.44565272
Direct configuration=     8
   0.33396213  0.44148123  0.56320208
   0.33345511  0.52807002  0.57030408
   0.41586222  0.57836503  0.55691955
   0.41643953  0.39252762  0.54661873
   0.48570167  0.44206125  0.49298570
   0.46474475  0.53902116  0.47839160
   0.54408334  0.58682420  0.45920322
   0.27448860  0.40378807  0.57163771
   0.44641139  0.37628210  0.60960048
   0.40209015  0.32984715  0.51585121
   0.27335456  0.56331449  0.58335742
   0.45907125  0.57373868  0.61390889
   0.40316476  0.64764071  0.54612800
   0.49423100  0.41135307  0.42931262
   0.54833929  0.43699896  0.52643645
   0.42163180  0.54496805  0.42158789
   0.60860040  0.62432459  0.44555471
Direct configuration=     9
   0.33394780  0.44141313  0.56326930
   0.33341881  0.52806622  0.57033722
   0.41587094  0.57836716  0.55687113
   0.41652116  0.39251162  0.54667593
   0.48553906  0.44196432  0.49260761
   0.46460899  0.53907911  0.47819195
   0.54410447  0.58684897  0.45898831
   0.27442627  0.40377473  0.57161727
   0.44649088  0.37668641  0.60981290
   0.40230740  0.32962273  0.51618008
   0.27329942  0.56331002  0.58330806
   0.45899959  0.57369397  0.61398420
   0.40319742  0.64768734  0.54613253
   0.49349272  0.41125993  0.42881886
   0.54843947  0.43680476  0.52564939
   0.42146074  0.54525413  0.42139308
   0.60860613  0.62424962  0.44543823
Direct configuration=    10
   0.33394737  0.44140338  0.56328973
   0.33340610  0.52803704  0.57033588
   0.41587785  0.57836649  0.55683760
   0.41657084  0.39250438  0.54670272
   0.48545109  0.44191076  0.49241707
   0.46454713  0.53910493  0.47809884
   0.54406080  0.58683714  0.45889085
   0.27439098  0.40377049  0.57161518
   0.44652220  0.37687823  0.60991111
   0.40241110  0.32952216  0.51635922
   0.27327326  0.56330885  0.58329493
   0.45896353  0.57367957  0.61401053
   0.40321122  0.64770519  0.54613331
   0.49312359  0.41121782  0.42857757
   0.54848509  0.43670769  0.52522960
   0.42137863  0.54539808  0.42130899
   0.60864130  0.62423558  0.44536464
Direct configuration=    11
   0.33394261  0.44136576  0.56331748
   0.33338734  0.52802242  0.57033806
   0.41588008  0.57836512  0.55680224
   0.41662875  0.39249509  0.54674897
   0.48532887  0.44184325  0.49214150
   0.46446354  0.53913748  0.47796142
   0.54405529  0.58685141  0.45873894
   0.27434719  0.40376682  0.57161089
   0.44656944  0.37715407  0.61005282
   0.40255962  0.32937322  0.51661278
   0.27324100  0.56330284  0.58327410
   0.45890904  0.57365846  0.61404420
   0.40323110  0.64772975  0.54613365
   0.49259458  0.41115599  0.42822842
   0.54855195  0.43656751  0.52463026
   0.42126004  0.54560348  0.42118739
   0.60864050  0.62418601  0.44526983
Direct configuration=    12
   0.33393909  0.44132155  0.56333329
   0.33336846  0.52800371  0.57032340
   0.41587941  0.57835982  0.55675666
   0.41669673  0.39248862  0.54680652
   0.48517848  0.44176497  0.49180943
   0.46437473  0.53917135  0.47780149
   0.54401352  0.58685402  0.45856457
   0.27429859  0.40376933  0.57161393
   0.44661897  0.37747277  0.61021483
   0.40273033  0.32920321  0.51693107
   0.27321162  0.56329105  0.58326121
   0.45884250  0.57364245  0.61406832
   0.40325096  0.64775157  0.54613055
   0.49196117  0.41108606  0.42781352
   0.54862896  0.43639798  0.52388282
   0.42112144  0.54584918  0.42105789
   0.60865048  0.62413979  0.44514311
Direct configuration=    13
   0.33393727  0.44130977  0.56333048
   0.33336299  0.52798713  0.57030643
   0.41587368  0.57835564  0.55673412
   0.41672374  0.39248790  0.54683955
   0.48510019  0.44173223  0.49163615
   0.46434006  0.53918678  0.47772051
   0.54396294  0.58684005  0.45848291
   0.27427803  0.40377397  0.57161990
   0.44664284  0.37762957  0.61029440
   0.40281332  0.32911823  0.51710162
   0.27320332  0.56328108  0.58326145
   0.45880712  0.57363956  0.61406910
   0.40325872  0.64775652  0.54612590
   0.49163653  0.41105241  0.42760158
   0.54866820  0.43630864  0.52348320
   0.42105314  0.54597369  0.42100250
   0.60866763  0.62412837  0.44506865
Direct configuration=    14
   0.33393329  0.44128802  0.56333067
   0.33335362  0.52797336  0.57028959
   0.41586763  0.57835070  0.55670489
   0.41675947  0.39248683  0.54687875
   0.48500183  0.44168659  0.49141989
   0.46428588  0.53920470  0.47762076
   0.54396134  0.58685729  0.45836650
   0.27425184  0.40377895  0.57162577
   0.44667424  0.37782845  0.61039559
   0.40291842  0.32901041  0.51731236
   0.27319179  0.56326896  0.58325926
   0.45876381  0.57363398  0.61407424
   0.40326877  0.64776478  0.54612070
   0.49122932  0.41100979  0.42733580
   0.54871811  0.43619680  0.52298845
   0.42096702  0.54612945  0.42093003
   0.60864103  0.62408512  0.44498699
Direct configuration=    15
   0.33392912  0.44127932  0.56331496
   0.33335085  0.52796762  0.57026765
   0.41585905  0.57834448  0.55668432
   0.41677292  0.39249106  0.54690230
   0.48494178  0.44166393  0.49129220
   0.46426550  0.53921419  0.47756855
   0.54392083  0.58684640  0.45830981
   0.27424351  0.40378775  0.57163549
   0.44669017  0.37793373  0.61044754
   0.40297099  0.32895276  0.51744462
   0.27319622  0.56325545  0.58326832
   0.45873929  0.57363840  0.61406230
   0.40326942  0.64776182  0.54611227
   0.49099463  0.41098980  0.42718535
   0.54874665  0.43612801  0.52267993
   0.42092236  0.54621595  0.42090507
   0.60864280  0.62407901  0.44492529
Direct configuration=    16
   0.33392496  0.44127041  0.56330118
   0.33334717  0.52795890  0.57024558
   0.41585087  0.57833900  0.55666078
   0.41679071  0.39249472  0.54692777
   0.48487284  0.44163496  0.49114671
   0.46423417  0.53922390  0.47750926
   0.54391354  0.58685569  0.45823607
   0.27423181  0.40379581  0.57164539
   0.44670948  0.37805687  0.61050807
   0.40303203  0.32888544  0.51759304
   0.27319782  0.56324210  0.58327698
   0.45871190  0.57364157  0.61405255
   0.40327043  0.64776030  0.54610316
   0.49072541  0.41096621  0.42701243
   0.54877992  0.43604900  0.52233302
   0.42086984  0.54631474  0.42087247
   0.60861710  0.62405494  0.44486151
Direct configuration=    17
   0.33392035  0.44126447  0.56327510
   0.33334541  0.52795093  0.57021385
   0.41584101  0.57833074  0.55663113
   0.41680631  0.39250272  0.54695122
   0.48479944  0.44160690  0.49099949
   0.46420755  0.53923267  0.47745476
   0.54388086  0.58685168  0.45816922
   0.27422421  0.40380805  0.57166068
   0.44672843  0.37817730  0.61056370
   0.40308675  0.32881993  0.51775299
   0.27320672  0.56322434  0.58329497
   0.45868553  0.57365080  0.61403123
   0.40326578  0.64775346  0.54608758
   0.49044777  0.41094585  0.42683566
   0.54881324  0.43596283  0.52195868
   0.42081901  0.54641251  0.42085145
   0.60859923  0.62404392  0.44478390
Direct configuration=    18
   0.33391758  0.44126107  0.56325178
   0.33334486  0.52794640  0.57018798
   0.41583480  0.57832449  0.55660656
   0.41681764  0.39250985  0.54696432
   0.48474621  0.44158616  0.49089755
   0.46418903  0.53923727  0.47742102
   0.54385776  0.58684858  0.45812557
   0.27422055  0.40381793  0.57167402
   0.44674205  0.37826030  0.61059778
   0.40311954  0.32877580  0.51786756
   0.27321536  0.56321088  0.58331313
   0.45866939  0.57366018  0.61401121
   0.40325804  0.64774682  0.54607131
   0.49025079  0.41093464  0.42671203
   0.54883654  0.43589782  0.52168831
   0.42078428  0.54647773  0.42084208
   0.60858088  0.62403924  0.44472382
Direct configuration=    19
   0.33391491  0.44125813  0.56322842
   0.33334438  0.52794151  0.57016178
   0.41582803  0.57831911  0.55658213
   0.41682867  0.39251644  0.54697763
   0.48469142  0.44156361  0.49079156
   0.46416846  0.53924120  0.47738681
   0.54384719  0.58685282  0.45807824
   0.27421686  0.40382773  0.57168786
   0.44675615  0.37834491  0.61063177
   0.40315199  0.32873095  0.51798338
   0.27322387  0.56319761  0.58333237
   0.45865359  0.57366988  0.61399098
   0.40324954  0.64774008  0.54605381
   0.49004998  0.41092405  0.42658694
   0.54886102  0.43583052  0.52141444
   0.42074892  0.54654302  0.42083252
   0.60855167  0.62402951  0.44466362
Direct configuration=    20
   0.33391283  0.44125569  0.56320011
   0.33334429  0.52793712  0.57013146
   0.41582161  0.57831381  0.55655309
   0.41684091  0.39252379  0.54698881
   0.48463097  0.44153779  0.49067614
   0.46414985  0.53924595  0.47735154
   0.54380511  0.58683939  0.45803585
   0.27421416  0.40383907  0.57170496
   0.44677258  0.37843725  0.61066397
   0.40318180  0.32868315  0.51810993
   0.27323440  0.56318327  0.58335855
   0.45863925  0.57368307  0.61396549
   0.40323582  0.64773209  0.54602852
   0.48982789  0.41091556  0.42644972
   0.54888783  0.43575152  0.52111092
   0.42071080  0.54661040  0.42082514
   0.60854052  0.62403760  0.44458674
Direct configuration=    21
   0.33391062  0.44125277  0.56317506
   0.33334382  0.52793279  0.57010420
   0.41581521  0.57830917  0.55652669
   0.41685243  0.39253008  0.54699953
   0.48457439  0.44151295  0.49056683
   0.46412810  0.53924817  0.47731758
   0.54380144  0.58684755  0.45798709
   0.27421100  0.40384928  0.57172062
   0.44678841  0.37852598  0.61069528
   0.40321064  0.32863685  0.51822882
   0.27324345  0.56317023  0.58338267
   0.45862543  0.57369518  0.61394268
   0.40322314  0.64772533  0.54600456
   0.48961623  0.41090686  0.42631813
   0.54891310  0.43567627  0.52082441
   0.42067389  0.54667454  0.42081643
   0.60850076  0.62402817  0.44452053
Direct configuration=    22
   0.33390903  0.44124998  0.56314614
   0.33334356  0.52792895  0.57007400
   0.41580878  0.57830537  0.55649600
   0.41686538  0.39253636  0.54700796
   0.48451214  0.44148358  0.49044497
   0.46410743  0.53925041  0.47728058
   0.54377522  0.58684344  0.45793962
   0.27420852  0.40386094  0.57173960
   0.44680764  0.37862649  0.61072546
   0.40323696  0.32858522  0.51835993
   0.27325420  0.56315659  0.58341492
   0.45861310  0.57371178  0.61391493
   0.40320436  0.64771808  0.54597019
   0.48937555  0.41090008  0.42616845
   0.54894136  0.43558518  0.52050103
   0.42063250  0.54674191  0.42080780
   0.60846911  0.62403286  0.44443647
Direct configuration=    23
   0.33390789  0.44124821  0.56312260
   0.33334324  0.52792575  0.57005042
   0.41580330  0.57830384  0.55646953
   0.41687554  0.39253993  0.54701245
   0.48445976  0.44145636  0.49033902
   0.46409047  0.53925098  0.47724904
   0.54375148  0.58683900  0.45790034
   0.27420660  0.40387058  0.57175652
   0.44682528  0.37871385  0.61074806
   0.40325454  0.32854011  0.51846863
   0.27326320  0.56314622  0.58344678
   0.45860483  0.57372902  0.61389097
   0.40318461  0.64771268  0.54593398
   0.48916580  0.41089635  0.42603750
   0.54896613  0.43550040  0.52022447
   0.42059698  0.54679550  0.42080005
   0.60844197  0.62404401  0.44435891
Direct configuration=    24
   0.33390831  0.44124851  0.56312482
   0.33334339  0.52792663  0.57005401
   0.41580382  0.57830528  0.55647105
   0.41687420  0.39253842  0.54700930
   0.48446436  0.44145634  0.49034561
   0.46409194  0.53924904  0.47725187
   0.54376069  0.58684365  0.45790239
   0.27420713  0.40386991  0.57175616
   0.44682511  0.37870904  0.61074309
   0.40324827  0.32854240  0.51845819
   0.27326284  0.56314798  0.58344911
   0.45860747  0.57373126  0.61389173
   0.40318223  0.64771361  0.54592951
   0.48917638  0.41089866  0.42604320
   0.54896479  0.43549942  0.52024234
   0.42059934  0.54678790  0.42080054
   0.60843383  0.62404492  0.44436024
Direct configuration=    25
   0.33390859  0.44124819  0.56312186
   0.33334364  0.52792659  0.57005232
   0.41580354  0.57830569  0.55646697
   0.41687575  0.39253839  0.54700805
   0.48445835  0.44145189  0.49033144
   0.46409128  0.53924814  0.47724784
   0.54375290  0.58684046  0.45789889
   0.27420709  0.40387143  0.57175907
   0.44682808  0.37872194  0.61074402
   0.40324725  0.32853548  0.51847135
   0.27326441  0.56314720  0.58345684
   0.45860743  0.57373653  0.61388769
   0.40317692  0.64771320  0.54591951
   0.48914468  0.41089928  0.42602214
   0.54896842  0.43548299  0.52020272
   0.42059427  0.54679293  0.42079942
   0.60843017  0.62405195  0.44434475
Direct configuration=    26
   0.33390892  0.44124829  0.56311937
   0.33334407  0.52792662  0.57005174
   0.41580315  0.57830675  0.55646303
   0.41687650  0.39253765  0.54700575
   0.48445333  0.44144692  0.49031810
   0.46408998  0.53924617  0.47724491
   0.54375396  0.58684222  0.45789441
   0.27420715  0.40387291  0.57176193
   0.44683090  0.37873360  0.61074347
   0.40324409  0.32852900  0.51848169
   0.27326608  0.56314686  0.58346583
   0.45860800  0.57374325  0.61388365
   0.40317059  0.64771274  0.54590739
   0.48911490  0.41090080  0.42600216
   0.54897259  0.43546525  0.52016702
   0.42058996  0.54679575  0.42079859
   0.60841863  0.62405683  0.44433022
Direct configuration=    27
   0.33391311  0.44125147  0.56307774
   0.33335178  0.52792664  0.57003823
   0.41579387  0.57832143  0.55639995
   0.41688686  0.39252745  0.54697610
   0.48436454  0.44136588  0.49009182
   0.46407203  0.53922430  0.47719391
   0.54369899  0.58683113  0.45783071
   0.27420823  0.40389787  0.57180657
   0.44687353  0.37891632  0.61074408
   0.40320568  0.32842712  0.51865523
   0.27329552  0.56313817  0.58360189
   0.45861244  0.57384684  0.61382133
   0.40307874  0.64770298  0.54572785
   0.48864479  0.41092227  0.42569016
   0.54904239  0.43519357  0.51959358
   0.42052403  0.54684977  0.42078657
   0.60829924  0.62415770  0.44409683
Direct configuration=    28
   0.33391207  0.44125161  0.56308287
   0.33335211  0.52792791  0.57004267
   0.41579365  0.57831983  0.55640686
   0.41688283  0.39252713  0.54697792
   0.48437544  0.44137230  0.49011571
   0.46407188  0.53922406  0.47720111
   0.54372816  0.58684808  0.45782965
   0.27420820  0.40389645  0.57180183
   0.44686642  0.37889102  0.61074314
   0.40320682  0.32843905  0.51863203
   0.27329494  0.56313869  0.58359124
   0.45861069  0.57384274  0.61382818
   0.40308791  0.64770289  0.54574309
   0.48870027  0.41092020  0.42572373
   0.54903494  0.43521999  0.51965883
   0.42053448  0.54684039  0.42078965
   0.60828904  0.62413973  0.44412497
Direct configuration=    29
   0.33391240  0.44125240  0.56307973
   0.33335347  0.52792820  0.57004320
   0.41579263  0.57832115  0.55640142
   0.41688271  0.39252553  0.54697483
   0.48436882  0.44136434  0.49009665
   0.46407230  0.53922221  0.47719720
   0.54371209  0.58684191  0.45782531
   0.27420830  0.40389926  0.57180580
   0.44686863  0.37890357  0.61074265
   0.40320199  0.32843080  0.51864453
   0.27329874  0.56313784  0.58360512
   0.45861035  0.57385544  0.61382306
   0.40307974  0.64770149  0.54572567
   0.48866305  0.41092194  0.42569699
   0.54904068  0.43519543  0.51961199
   0.42053038  0.54684324  0.42078934
   0.60828666  0.62415640  0.44410193
Direct configuration=    30
   0.33391196  0.44125345  0.56307887
   0.33335502  0.52792853  0.57004593
   0.41579197  0.57832185  0.55639839
   0.41688041  0.39252353  0.54697219
   0.48436659  0.44135953  0.49008832
   0.46407329  0.53922013  0.47719657
   0.54370871  0.58684322  0.45781991
   0.27420803  0.40390160  0.57180771
   0.44686720  0.37890461  0.61074115
   0.40319684  0.32842746  0.51864634
   0.27330224  0.56313737  0.58361527
   0.45860912  0.57386760  0.61382091
   0.40307503  0.64770002  0.54571361
   0.48864936  0.41092277  0.42568410
   0.54904364  0.43518109  0.51959288
   0.42053116  0.54684164  0.42079017
   0.60827977  0.62416632  0.44409067
Direct configuration=    31
   0.33391172  0.44125575  0.56307720
   0.33335947  0.52792930  0.57005312
   0.41579051  0.57832400  0.55639122
   0.41687594  0.39251900  0.54696568
   0.48436114  0.44134668  0.49006760
   0.46407551  0.53921427  0.47719542
   0.54370189  0.58684741  0.45780711
   0.27420725  0.40390729  0.57181279
   0.44686343  0.37890592  0.61073713
   0.40318429  0.32841974  0.51864989
   0.27331079  0.56313657  0.58364048
   0.45860642  0.57389764  0.61381635
   0.40306397  0.64769650  0.54568468
   0.48861829  0.41092480  0.42565478
   0.54904979  0.43514702  0.51954888
   0.42053292  0.54683722  0.42079214
   0.60826099  0.62419055  0.44406295
Direct configuration=    32
   0.33391103  0.44126291  0.56307084
   0.33337472  0.52793199  0.57007794
   0.41578598  0.57833202  0.55636545
   0.41686067  0.39250300  0.54694168
   0.48434122  0.44130201  0.48999426
   0.46408272  0.53919352  0.47719021
   0.54368522  0.58686547  0.45776104
   0.27420420  0.40392750  0.57183111
   0.44685049  0.37891219  0.61072192
   0.40313961  0.32839183  0.51866349
   0.27334086  0.56313401  0.58373080
   0.45859719  0.57400466  0.61379954
   0.40302378  0.64768442  0.54558037
   0.48850379  0.41093185  0.42554832
   0.54907109  0.43502432  0.51938774
   0.42053761  0.54682234  0.42079776
   0.60818746  0.62427186  0.44396533
Direct configuration=    33
   0.33391169  0.44126236  0.56307105
   0.33337624  0.52793183  0.57008083
   0.41578713  0.57833378  0.55636280
   0.41685996  0.39250062  0.54693759
   0.48433954  0.44129881  0.48998939
   0.46408541  0.53919218  0.47718856
   0.54367428  0.58686212  0.45775851
   0.27420349  0.40392933  0.57183357
   0.44684877  0.37891054  0.61071812
   0.40313471  0.32838978  0.51866252
   0.27334383  0.56313440  0.58374148
   0.45859701  0.57401686  0.61379844
   0.40301953  0.64768397  0.54556874
   0.48849404  0.41093162  0.42553918
   0.54907055  0.43501198  0.51937337
   0.42053733  0.54682005  0.42079663
   0.60818628  0.62428531  0.44395367
Direct configuration=    34
   0.33391196  0.44126223  0.56307129
   0.33337661  0.52793172  0.57008124
   0.41578775  0.57833396  0.55636243
   0.41686024  0.39250051  0.54693670
   0.48433959  0.44129851  0.48998960
   0.46408556  0.53919100  0.47718865
   0.54367883  0.58686499  0.45775700
   0.27420314  0.40392956  0.57183410
   0.44684830  0.37890969  0.61071682
   0.40313371  0.32838958  0.51866160
   0.27334421  0.56313462  0.58374350
   0.45859709  0.57401926  0.61379837
   0.40301871  0.64768416  0.54556650
   0.48849295  0.41093141  0.42553834
   0.54906972  0.43501011  0.51937185
   0.42053697  0.54681935  0.42079613
   0.60818053  0.62428482  0.44395283
Direct configuration=    35
   0.33391266  0.44126235  0.56307172
   0.33337822  0.52793168  0.57008323
   0.41578891  0.57833483  0.55636050
   0.41686005  0.39249956  0.54693380
   0.48433879  0.44129571  0.48998668
   0.46408733  0.53918830  0.47718837
   0.54367769  0.58686604  0.45775408
   0.27420243  0.40393097  0.57183607
   0.44684683  0.37890801  0.61071342
   0.40312983  0.32838819  0.51866008
   0.27334642  0.56313498  0.58375154
   0.45859693  0.57402884  0.61379759
   0.40301542  0.64768392  0.54555751
   0.48848620  0.41093123  0.42553262
   0.54906899  0.43500121  0.51936262
   0.42053646  0.54681710  0.42079541
   0.60817350  0.62429231  0.44394494
Direct configuration=    36
   0.33391546  0.44126310  0.56307344
   0.33338918  0.52793314  0.57009823
   0.41579475  0.57834227  0.55634393
   0.41685432  0.39248987  0.54691131
   0.48432926  0.44127438  0.48995733
   0.46409525  0.53917158  0.47718291
   0.54366915  0.58687170  0.45773236
   0.27419866  0.40394259  0.57185096
   0.44683666  0.37889479  0.61068865
   0.40309992  0.32837829  0.51864842
   0.27336532  0.56313673  0.58381341
   0.45859659  0.57410325  0.61379126
   0.40299013  0.64768073  0.54548678
   0.48843217  0.41093092  0.42548812
   0.54906871  0.43493148  0.51929085
   0.42053550  0.54679980  0.42079271
   0.60812237  0.62434853  0.44388611
Direct configuration=    37
   0.33391726  0.44126423  0.56307458
   0.33339679  0.52793384  0.57010855
   0.41579781  0.57834771  0.55633272
   0.41684943  0.39248301  0.54689609
   0.48432228  0.44125971  0.48993669
   0.46410037  0.53916121  0.47717904
   0.54365853  0.58687291  0.45771831
   0.27419648  0.40395032  0.57186117
   0.44683022  0.37888534  0.61067217
   0.40307996  0.32837182  0.51863996
   0.27337844  0.56313772  0.58385501
   0.45859657  0.57415325  0.61378677
   0.40297339  0.64767820  0.54543924
   0.48839623  0.41093063  0.42545883
   0.54906910  0.43488493  0.51924361
   0.42053522  0.54678806  0.42079116
   0.60809228  0.62438885  0.44384563
Direct configuration=    38
   0.33391547  0.44126470  0.56307347
   0.33339210  0.52793309  0.57010216
   0.41579370  0.57834467  0.55634000
   0.41685024  0.39248708  0.54690617
   0.48432587  0.44126912  0.48994869
   0.46409504  0.53916938  0.47718149
   0.54366794  0.58687305  0.45772686
   0.27419867  0.40394515  0.57185473
   0.44683527  0.37889047  0.61068348
   0.40309325  0.32837642  0.51864413
   0.27337066  0.56313658  0.58382733
   0.45859683  0.57412014  0.61378881
   0.40298478  0.64767905  0.54547038
   0.48842037  0.41093066  0.42547889
   0.54907022  0.43491640  0.51927651
   0.42053609  0.54679574  0.42079271
   0.60811175  0.62436097  0.44387365
Direct configuration=    39
   0.33391673  0.44126600  0.56307437
   0.33339863  0.52793391  0.57011073
   0.41579557  0.57834901  0.55633112
   0.41684539  0.39248144  0.54689433
   0.48432026  0.44125720  0.48993186
   0.46409885  0.53916111  0.47717875
   0.54365903  0.58687411  0.45771518
   0.27419742  0.40395135  0.57186323
   0.44683057  0.37888247  0.61067069
   0.40307737  0.32837119  0.51863684
   0.27338167  0.56313708  0.58386039
   0.45859684  0.57415983  0.61378466
   0.40297165  0.64767677  0.54543263
   0.48839205  0.41093014  0.42545561
   0.54907099  0.43487987  0.51923985
   0.42053613  0.54678634  0.42079184
   0.60808747  0.62439373  0.44384112
Direct configuration=    40
   0.33391688  0.44126819  0.56307434
   0.33340565  0.52793517  0.57012129
   0.41579570  0.57835446  0.55631981
   0.41683716  0.39247433  0.54687964
   0.48431262  0.44124350  0.48991131
   0.46410039  0.53915303  0.47717475
   0.54365935  0.58687957  0.45769978
   0.27419624  0.40395929  0.57187375
   0.44682486  0.37887117  0.61065420
   0.40305691  0.32836517  0.51862536
   0.27339607  0.56313733  0.58390126
   0.45859673  0.57420964  0.61377760
   0.40295493  0.64767359  0.54538421
   0.48835669  0.41092920  0.42542579
   0.54907274  0.43483513  0.51919478
   0.42053642  0.54677500  0.42079044
   0.60805351  0.62442639  0.44380627
Direct configuration=    41
   0.33391653  0.44126734  0.56307416
   0.33340200  0.52793468  0.57011584
   0.41579493  0.57835164  0.55632590
   0.41684070  0.39247795  0.54688770
   0.48431667  0.44125099  0.48992241
   0.46409962  0.53915818  0.47717700
   0.54365464  0.58687404  0.45770882
   0.27419728  0.40395501  0.57186837
   0.44682827  0.37887651  0.61066317
   0.40306789  0.32836856  0.51863052
   0.27338873  0.56313699  0.58387901
   0.45859685  0.57418255  0.61378061
   0.40296412  0.64767514  0.54541038
   0.48837638  0.41092943  0.42544210
   0.54907210  0.43486019  0.51922034
   0.42053646  0.54678126  0.42079123
   0.60807608  0.62441045  0.44382496
Direct configuration=    42
   0.33391683  0.44126861  0.56307438
   0.33340612  0.52793529  0.57012157
   0.41579514  0.57835457  0.55632013
   0.41683649  0.39247409  0.54688028
   0.48431299  0.44124366  0.48991187
   0.46410139  0.53915379  0.47717537
   0.54364946  0.58687470  0.45770133
   0.27419680  0.40395895  0.57187413
   0.44682550  0.37887025  0.61065488
   0.40305749  0.32836546  0.51862428
   0.27339612  0.56313712  0.58389989
   0.45859691  0.57420768  0.61377681
   0.40295579  0.64767356  0.54538611
   0.48835905  0.41092879  0.42542746
   0.54907284  0.43483807  0.51919841
   0.42053666  0.54677549  0.42079057
   0.60806177  0.62443011  0.44380569
Direct configuration=    43
   0.33391705  0.44127119  0.56307387
   0.33341388  0.52793691  0.57013314
   0.41579468  0.57836083  0.55630768
   0.41682735  0.39246630  0.54686394
   0.48430514  0.44122909  0.48989057
   0.46410287  0.53914523  0.47717133
   0.54364873  0.58688033  0.45768451
   0.27419564  0.40396766  0.57188611
   0.44681917  0.37885612  0.61063624
   0.40303459  0.32835961  0.51860928
   0.27341194  0.56313759  0.58394432
   0.45859694  0.57426187  0.61376750
   0.40293750  0.64767029  0.54533307
   0.48832211  0.41092772  0.42539587
   0.54907447  0.43479142  0.51915152
   0.42053683  0.54676350  0.42078841
   0.60802585  0.62446300  0.44377021
Direct configuration=    44
   0.33391703  0.44127083  0.56307412
   0.33341240  0.52793652  0.57013065
   0.41579469  0.57835953  0.55631054
   0.41682928  0.39246787  0.54686787
   0.48430728  0.44123247  0.48989590
   0.46410275  0.53914704  0.47717262
   0.54364724  0.58687867  0.45768842
   0.27419609  0.40396552  0.57188374
   0.44682073  0.37885844  0.61064063
   0.40303987  0.32836119  0.51861170
   0.27340824  0.56313749  0.58393363
   0.45859707  0.57424860  0.61376911
   0.40294199  0.64767119  0.54534607
   0.48833215  0.41092776  0.42540420
   0.54907394  0.43480391  0.51916455
   0.42053684  0.54676646  0.42078894
   0.60803532  0.62445555  0.44377879
Direct configuration=    45
   0.33391722  0.44127170  0.56307424
   0.33341502  0.52793697  0.57013432