unknown system                          
           1
    22.919300    0.000000    0.000000
     0.000000   17.412900    0.000000
     0.000000    0.000000   16.832900
   N    C    H 
     1     5    13
Direct configuration=     1
   0.62982316  0.48245928  0.47128855
   0.47501881  0.52367393  0.50313626
   0.53275990  0.48527392  0.53373847
   0.42361949  0.46999437  0.49936223
   0.58815691  0.52941746  0.51615005
   0.36500570  0.51051287  0.48013329
   0.45987394  0.57405165  0.54482932
   0.48329440  0.54732382  0.44371745
   0.53791587  0.42514436  0.51473904
   0.52865449  0.48207600  0.60147296
   0.42871032  0.43081878  0.44809860
   0.41239305  0.43528583  0.55475732
   0.61233882  0.55011713  0.57113437
   0.57954183  0.58149550  0.48284076
   0.36998985  0.55818822  0.43978537
   0.33250699  0.46771793  0.45699358
   0.34725991  0.52970833  0.53746891
   0.66008811  0.45776881  0.50736339
   0.65433146  0.52495443  0.44431577
