  17  17   0   0
  0.2149333E+03  0.1540225E-08  0.1540225E-08  0.1540225E-08  0.5000000E-15
  1.000000000000000E-004
  CAR 
 unknown system                          
      1.92441222    -23.44499349  301     -5.85025358      1.00000000
    -23.445  0.0000E+00  0.0000E+00
    -23.360  0.0000E+00  0.0000E+00
    -23.276  0.0000E+00  0.0000E+00
    -23.191  0.0000E+00  0.0000E+00
    -23.107  0.0000E+00  0.0000E+00
    -23.022  0.0000E+00  0.0000E+00
    -22.938  0.0000E+00  0.0000E+00
    -22.853  0.0000E+00  0.0000E+00
    -22.768  0.0000E+00  0.0000E+00
    -22.684  0.0000E+00  0.0000E+00
    -22.599  0.0000E+00  0.0000E+00
    -22.515  0.3391E-08  0.2867E-09
    -22.430  0.1074E-02  0.9080E-04
    -22.346  0.1512E+01  0.1280E+00
    -22.261  0.1759E+02  0.1616E+01
    -22.177  0.4533E+01  0.1999E+01
    -22.092  0.1310E-01  0.2000E+01
    -22.007  0.1859E-06  0.2000E+01
    -21.923  0.1050E-13  0.2000E+01
    -21.838  0.0000E+00  0.2000E+01
    -21.754  0.0000E+00  0.2000E+01
    -21.669  0.0000E+00  0.2000E+01
    -21.585  0.0000E+00  0.2000E+01
    -21.500  0.0000E+00  0.2000E+01
    -21.415  0.1651E-09  0.2000E+01
    -21.331  0.1493E-03  0.2000E+01
    -21.246  0.5712E+00  0.2048E+01
    -21.162  0.1508E+02  0.3323E+01
    -21.077  0.7941E+01  0.3995E+01
    -20.993  0.5875E-01  0.4000E+01
    -20.908  0.2345E-05  0.4000E+01
    -20.823  0.3702E-12  0.4000E+01
    -20.739  0.0000E+00  0.4000E+01
    -20.654  0.0000E+00  0.4000E+01
    -20.570  0.0000E+00  0.4000E+01
    -20.485  0.0000E+00  0.4000E+01
    -20.401  0.0000E+00  0.4000E+01
    -20.316  0.0000E+00  0.4000E+01
    -20.232  0.0000E+00  0.4000E+01
    -20.147  0.0000E+00  0.4000E+01
    -20.062  0.0000E+00  0.4000E+01
    -19.978  0.0000E+00  0.4000E+01
    -19.893  0.0000E+00  0.4000E+01
    -19.809  0.0000E+00  0.4000E+01
    -19.724  0.0000E+00  0.4000E+01
    -19.640  0.0000E+00  0.4000E+01
    -19.555  0.0000E+00  0.4000E+01
    -19.470  0.0000E+00  0.4000E+01
    -19.386  0.3939E-14  0.4000E+01
    -19.301  0.1030E-06  0.4000E+01
    -19.217  0.9142E-02  0.4001E+01
    -19.132  0.3915E+01  0.4332E+01
    -19.048  0.1789E+02  0.5845E+01
    -18.963  0.1833E+01  0.6000E+01
    -18.879  0.1667E-02  0.6000E+01
    -18.794  0.3080E+00  0.6026E+01
    -18.709  0.1308E+02  0.7132E+01
    -18.625  0.1014E+02  0.7989E+01
    -18.540  0.1244E+00  0.8000E+01
    -18.456  0.8773E-05  0.8000E+01
    -18.371  0.2489E-11  0.8000E+01
    -18.287  0.0000E+00  0.8000E+01
    -18.202  0.0000E+00  0.8000E+01
    -18.117  0.0000E+00  0.8000E+01
    -18.033  0.0000E+00  0.8000E+01
    -17.948  0.0000E+00  0.8000E+01
    -17.864  0.0000E+00  0.8000E+01
    -17.779  0.0000E+00  0.8000E+01
    -17.695  0.0000E+00  0.8000E+01
    -17.610  0.0000E+00  0.8000E+01
    -17.525  0.0000E+00  0.8000E+01
    -17.441  0.0000E+00  0.8000E+01
    -17.356  0.0000E+00  0.8000E+01
    -17.272  0.0000E+00  0.8000E+01
    -17.187  0.0000E+00  0.8000E+01
    -17.103  0.0000E+00  0.8000E+01
    -17.018  0.0000E+00  0.8000E+01
    -16.934  0.0000E+00  0.8000E+01
    -16.849  0.0000E+00  0.8000E+01
    -16.764  0.0000E+00  0.8000E+01
    -16.680  0.0000E+00  0.8000E+01
    -16.595  0.0000E+00  0.8000E+01
    -16.511  0.0000E+00  0.8000E+01
    -16.426  0.0000E+00  0.8000E+01
    -16.342  0.0000E+00  0.8000E+01
    -16.257  0.4332E-12  0.8000E+01
    -16.172  0.2614E-05  0.8000E+01
    -16.088  0.6255E-01  0.8005E+01
    -16.003  0.8113E+01  0.8691E+01
    -15.919  0.1493E+02  0.9954E+01
    -15.834  0.5445E+00  0.1000E+02
    -15.750  0.1361E-03  0.1000E+02
    -15.665  0.4601E-07  0.1000E+02
    -15.580  0.5555E-02  0.1000E+02
    -15.496  0.3174E+01  0.1027E+02
    -15.411  0.1813E+02  0.1180E+02
    -15.327  0.2343E+01  0.1200E+02
    -15.242  0.2778E-02  0.1200E+02
    -15.158  0.1513E-07  0.1200E+02
    -15.073  0.0000E+00  0.1200E+02
    -14.989  0.0000E+00  0.1200E+02
    -14.904  0.0000E+00  0.1200E+02
    -14.819  0.0000E+00  0.1200E+02
    -14.735  0.0000E+00  0.1200E+02
    -14.650  0.0000E+00  0.1200E+02
    -14.566  0.0000E+00  0.1200E+02
    -14.481  0.0000E+00  0.1200E+02
    -14.397  0.0000E+00  0.1200E+02
    -14.312  0.0000E+00  0.1200E+02
    -14.227  0.0000E+00  0.1200E+02
    -14.143  0.0000E+00  0.1200E+02
    -14.058  0.0000E+00  0.1200E+02
    -13.974  0.0000E+00  0.1200E+02
    -13.889  0.0000E+00  0.1200E+02
    -13.805  0.0000E+00  0.1200E+02
    -13.720  0.0000E+00  0.1200E+02
    -13.635  0.0000E+00  0.1200E+02
    -13.551  0.0000E+00  0.1200E+02
    -13.466  0.0000E+00  0.1200E+02
    -13.382  0.0000E+00  0.1200E+02
    -13.297  0.7417E-08  0.1200E+02
    -13.213  0.1770E-02  0.1200E+02
    -13.128  0.1911E+01  0.1216E+02
    -13.044  0.1978E+02  0.1383E+02
    -12.959  0.2168E+02  0.1567E+02
    -12.874  0.3914E+01  0.1600E+02
    -12.790  0.9087E-02  0.1600E+02
    -12.705  0.1020E-06  0.1600E+02
    -12.621  0.5251E-14  0.1600E+02
    -12.536  0.0000E+00  0.1600E+02
    -12.452  0.0000E+00  0.1600E+02
    -12.367  0.0000E+00  0.1600E+02
    -12.282  0.0000E+00  0.1600E+02
    -12.198  0.0000E+00  0.1600E+02
    -12.113  0.0000E+00  0.1600E+02
    -12.029  0.1129E-08  0.1600E+02
    -11.944  0.5276E-03  0.1600E+02
    -11.860  0.1075E+01  0.1609E+02
    -11.775  0.1686E+02  0.1752E+02
    -11.691  0.5688E+01  0.1800E+02
    -11.606  0.2340E-01  0.1800E+02
    -11.521  0.4883E-06  0.1800E+02
    -11.437  0.3939E-13  0.1800E+02
    -11.352  0.0000E+00  0.1800E+02
    -11.268  0.9715E-13  0.1800E+02
    -11.183  0.9157E-06  0.1800E+02
    -11.099  0.3396E-01  0.1800E+02
    -11.014  0.6537E+01  0.1856E+02
    -10.929  0.1623E+02  0.1993E+02
    -10.845  0.8447E+00  0.2000E+02
    -10.760  0.3235E-03  0.2000E+02
    -10.676  0.1473E-03  0.2000E+02
    -10.591  0.5671E+00  0.2005E+02
    -10.507  0.1506E+02  0.2132E+02
    -10.422  0.9213E+01  0.2210E+02
    -10.337  0.1726E+02  0.2356E+02
    -10.253  0.5181E+01  0.2400E+02
    -10.168  0.1836E-01  0.2400E+02
    -10.084  0.3255E-06  0.2400E+02
     -9.999  0.1573E-04  0.2400E+02
     -9.915  0.1721E+00  0.2401E+02
     -9.830  0.1117E+02  0.2496E+02
     -9.746  0.1212E+02  0.2598E+02
     -9.661  0.7044E+01  0.2658E+02
     -9.576  0.1601E+02  0.2793E+02
     -9.492  0.7810E+00  0.2800E+02
     -9.407  0.2766E-03  0.2800E+02
     -9.323  0.4200E-09  0.2800E+02
     -9.238  0.0000E+00  0.2800E+02
     -9.154  0.0000E+00  0.2800E+02
     -9.069  0.0000E+00  0.2800E+02
     -8.984  0.3300E-10  0.2800E+02
     -8.900  0.5092E-04  0.2800E+02
     -8.815  0.3253E+00  0.2803E+02
     -8.731  0.1326E+02  0.2915E+02
     -8.646  0.9997E+01  0.2999E+02
     -8.562  0.7559E+01  0.3063E+02
     -8.477  0.1550E+02  0.3194E+02
     -8.392  0.6943E+00  0.3200E+02
     -8.308  0.6829E+01  0.3258E+02
     -8.223  0.1600E+02  0.3393E+02
     -8.139  0.7783E+00  0.3400E+02
     -8.054  0.2000E-02  0.3400E+02
     -7.970  0.1887E+01  0.3416E+02
     -7.885  0.1793E+02  0.3568E+02
     -7.801  0.3825E+01  0.3600E+02
     -7.716  0.1002E-01  0.3600E+02
     -7.631  0.1701E+01  0.3614E+02
     -7.547  0.1835E+02  0.3770E+02
     -7.462  0.1922E+02  0.3932E+02
     -7.378  0.7967E+01  0.4000E+02
     -7.293  0.5907E-01  0.4000E+02
     -7.209  0.2367E-05  0.4000E+02
     -7.124  0.3755E-12  0.4000E+02
     -7.039  0.0000E+00  0.4000E+02
     -6.955  0.0000E+00  0.4000E+02
     -6.870  0.0000E+00  0.4000E+02
     -6.786  0.0000E+00  0.4000E+02
     -6.701  0.0000E+00  0.4000E+02
     -6.617  0.0000E+00  0.4000E+02
     -6.532  0.0000E+00  0.4000E+02
     -6.447  0.0000E+00  0.4000E+02
     -6.363  0.1225E-09  0.4000E+02
     -6.278  0.1225E-03  0.4000E+02
     -6.194  0.5157E+00  0.4004E+02
     -6.109  0.1476E+02  0.4129E+02
     -6.025  0.8309E+01  0.4199E+02
     -5.940  0.6711E-01  0.4200E+02
     -5.856  0.2955E-05  0.4200E+02
     -5.771  0.5146E-12  0.4200E+02
     -5.686  0.0000E+00  0.4200E+02
     -5.602  0.0000E+00  0.4200E+02
     -5.517  0.0000E+00  0.4200E+02
     -5.433  0.0000E+00  0.4200E+02
     -5.348  0.0000E+00  0.4200E+02
     -5.264  0.0000E+00  0.4200E+02
     -5.179  0.0000E+00  0.4200E+02
     -5.094  0.0000E+00  0.4200E+02
     -5.010  0.0000E+00  0.4200E+02
     -4.925  0.0000E+00  0.4200E+02
     -4.841  0.0000E+00  0.4200E+02
     -4.756  0.0000E+00  0.4200E+02
     -4.672  0.0000E+00  0.4200E+02
     -4.587  0.0000E+00  0.4200E+02
     -4.503  0.0000E+00  0.4200E+02
     -4.418  0.0000E+00  0.4200E+02
     -4.333  0.0000E+00  0.4200E+02
     -4.249  0.0000E+00  0.4200E+02
     -4.164  0.0000E+00  0.4200E+02
     -4.080  0.0000E+00  0.4200E+02
     -3.995  0.0000E+00  0.4200E+02
     -3.911  0.0000E+00  0.4200E+02
     -3.826  0.0000E+00  0.4200E+02
     -3.741  0.0000E+00  0.4200E+02
     -3.657  0.0000E+00  0.4200E+02
     -3.572  0.0000E+00  0.4200E+02
     -3.488  0.0000E+00  0.4200E+02
     -3.403  0.0000E+00  0.4200E+02
     -3.319  0.0000E+00  0.4200E+02
     -3.234  0.0000E+00  0.4200E+02
     -3.149  0.0000E+00  0.4200E+02
     -3.065  0.0000E+00  0.4200E+02
     -2.980  0.0000E+00  0.4200E+02
     -2.896  0.0000E+00  0.4200E+02
     -2.811  0.0000E+00  0.4200E+02
     -2.727  0.0000E+00  0.4200E+02
     -2.642  0.0000E+00  0.4200E+02
     -2.558  0.0000E+00  0.4200E+02
     -2.473  0.0000E+00  0.4200E+02
     -2.388  0.0000E+00  0.4200E+02
     -2.304  0.0000E+00  0.4200E+02
     -2.219  0.0000E+00  0.4200E+02
     -2.135  0.0000E+00  0.4200E+02
     -2.050  0.0000E+00  0.4200E+02
     -1.966  0.0000E+00  0.4200E+02
     -1.881  0.0000E+00  0.4200E+02
     -1.796  0.0000E+00  0.4200E+02
     -1.712  0.0000E+00  0.4200E+02
     -1.627  0.0000E+00  0.4200E+02
     -1.543  0.0000E+00  0.4200E+02
     -1.458  0.0000E+00  0.4200E+02
     -1.374  0.0000E+00  0.4200E+02
     -1.289  0.0000E+00  0.4200E+02
     -1.204  0.6302E-13  0.4200E+02
     -1.120  0.6785E-06  0.4200E+02
     -1.035  0.2845E-01  0.4200E+02
     -0.951  0.6123E+01  0.4252E+02
     -0.866  0.1655E+02  0.4392E+02
     -0.782  0.9495E+00  0.4400E+02
     -0.697  0.8504E-02  0.4400E+02
     -0.613  0.3722E+01  0.4432E+02
     -0.528  0.1797E+02  0.4583E+02
     -0.443  0.1951E+01  0.4600E+02
     -0.359  0.1856E-02  0.4600E+02
     -0.274  0.9108E-03  0.4600E+02
     -0.190  0.1415E+01  0.4612E+02
     -0.105  0.2252E+02  0.4802E+02
     -0.021  0.3364E+02  0.5087E+02
      0.064  0.3000E+02  0.5341E+02
      0.149  0.1130E+02  0.5436E+02
      0.233  0.1775E+02  0.5586E+02
      0.318  0.1624E+01  0.5600E+02
      0.402  0.1262E-02  0.5600E+02
      0.487  0.1546E+00  0.5601E+02
      0.571  0.1082E+02  0.5693E+02
      0.656  0.1243E+02  0.5798E+02
      0.741  0.4785E+01  0.5838E+02
      0.825  0.1759E+02  0.5987E+02
      0.910  0.1512E+01  0.6000E+02
      0.994  0.1074E-02  0.6000E+02
      1.079  0.3391E-08  0.6000E+02
      1.163  0.0000E+00  0.6000E+02
      1.248  0.0000E+00  0.6000E+02
      1.332  0.0000E+00  0.6000E+02
      1.417  0.0000E+00  0.6000E+02
      1.502  0.0000E+00  0.6000E+02
      1.586  0.0000E+00  0.6000E+02
      1.671  0.0000E+00  0.6000E+02
      1.755  0.0000E+00  0.6000E+02
      1.840  0.0000E+00  0.6000E+02
      1.924  0.0000E+00  0.6000E+02
