   17   17    1    1
  0.2149333E+03  0.1540225E-08  0.1540225E-08  0.1540225E-08  0.5000000E-15
  1.000000000000000E-004
  CAR 
 unknown system                          
     42      1     30
 
  0.0000000E+00  0.0000000E+00  0.0000000E+00  0.1000000E+01
      1        -22.291839   1.000000
      2        -21.176498   1.000000
      3        -19.097886   1.000000
      4        -18.715253   1.000000
      5        -15.989266   1.000000
      6        -15.456825   1.000000
      7        -13.078613   1.000000
      8        -12.993340   1.000000
      9        -11.799870   1.000000
     10        -10.993150   1.000000
     11        -10.521242   1.000000
     12        -10.364789   1.000000
     13         -9.828260   1.000000
     14         -9.641367   1.000000
     15         -8.737373   1.000000
     16         -8.544749   1.000000
     17         -8.288387   1.000000
     18         -7.919945   1.000000
     19         -7.579734   1.000000
     20         -7.476957   1.000000
     21         -6.122459   1.000000
     22         -0.928051   0.000000
     23         -0.577037   0.000000
     24         -0.134490   0.000000
     25         -0.076528   0.000000
     26         -0.016870   0.000000
     27          0.044050   0.000000
     28          0.180602   0.000000
     29          0.574551   0.000000
     30          0.771257   0.000000
