<?xml version="1.0" encoding="ISO-8859-1"?>
<modeling>
 <generator>
  <i name="program" type="string">vasp </i>
  <i name="version" type="string">6.3.2  </i>
  <i name="subversion" type="string">27Jun22 (build Oct 05 2023 17:59:42) gamma-only                       parallel </i>
  <i name="platform" type="string">LinuxIFC </i>
  <i name="date" type="string">2024 04 08 </i>
  <i name="time" type="string">10:32:50 </i>
 </generator>
 <incar>
  <i type="string" name="ALGO">Fast</i>
  <i type="int" name="ISPIN">     1</i>
  <i name="ENCUT">    400.00000000</i>
  <i type="int" name="ISMEAR">     0</i>
  <i name="SIGMA">      0.05000000</i>
  <i type="logical" name="LWAVE"> F  </i>
  <i type="logical" name="LCHARG"> F  </i>
  <i type="string" name="GGA">PE</i>
  <i type="int" name="IVDW">    11</i>
 </incar>
 <primitive_cell>
  <structure name="primitive_cell" >
   <crystal>
    <varray name="basis" >
     <v>      15.40225029       0.00000000       0.00000000 </v>
     <v>       0.00000000      15.40225029       0.00000000 </v>
     <v>       0.00000000       0.00000000      15.40225029 </v>
    </varray>
    <i name="volume">   3653.86527022 </i>
    <varray name="rec_basis" >
     <v>       0.06492558       0.00000000       0.00000000 </v>
     <v>       0.00000000       0.06492558       0.00000000 </v>
     <v>       0.00000000       0.00000000       0.06492558 </v>
    </varray>
   </crystal>
   <varray name="positions" >
    <v>       0.34669186       0.43761808       0.56319726 </v>
    <v>       0.34206322       0.52416831       0.57054502 </v>
    <v>       0.41969192       0.58325813       0.56666915 </v>
    <v>       0.43067691       0.38888499       0.55283782 </v>
    <v>       0.51000948       0.44526587       0.57335808 </v>
    <v>       0.50033660       0.53555646       0.53069251 </v>
    <v>       0.57864302       0.58780185       0.54200920 </v>
    <v>       0.28697690       0.39932806       0.56497494 </v>
    <v>       0.43059382       0.33140102       0.59544392 </v>
    <v>       0.43526490       0.36283804       0.48611437 </v>
    <v>       0.27893125       0.55530655       0.57949124 </v>
    <v>       0.43435684       0.60939487       0.63178787 </v>
    <v>       0.40540404       0.64018300       0.52582907 </v>
    <v>       0.57003594       0.41385022       0.55100791 </v>
    <v>       0.51601838       0.45426761       0.64403415 </v>
    <v>       0.49124985       0.52610979       0.46017750 </v>
    <v>       0.64109004       0.62934502       0.55261525 </v>
   </varray>
  </structure>
  <varray name="primitive_index" >
   <v type="int" >        1 </v>
   <v type="int" >        2 </v>
   <v type="int" >        3 </v>
   <v type="int" >        4 </v>
   <v type="int" >        5 </v>
   <v type="int" >        6 </v>
   <v type="int" >        7 </v>
   <v type="int" >        8 </v>
   <v type="int" >        9 </v>
   <v type="int" >       10 </v>
   <v type="int" >       11 </v>
   <v type="int" >       12 </v>
   <v type="int" >       13 </v>
   <v type="int" >       14 </v>
   <v type="int" >       15 </v>
   <v type="int" >       16 </v>
   <v type="int" >       17 </v>
  </varray>
 </primitive_cell>
 <kpoints>
  <generation param="Gamma">
   <v type="int" name="divisions">       1        1        1 </v>
   <v name="usershift">      0.00000000       0.00000000       0.00000000 </v>
   <v name="genvec1">      1.00000000       0.00000000       0.00000000 </v>
   <v name="genvec2">      0.00000000       1.00000000       0.00000000 </v>
   <v name="genvec3">      0.00000000       0.00000000       1.00000000 </v>
   <v name="shift">      0.00000000       0.00000000       0.00000000 </v>
  </generation>
  <varray name="kpointlist" >
   <v>       0.00000000       0.00000000       0.00000000 </v>
  </varray>
  <varray name="weights" >
   <v>       1.00000000 </v>
  </varray>
 </kpoints>
 <parameters>
  <separator name="general" >
   <i type="string" name="SYSTEM">unknown system</i>
   <i type="logical" name="LCOMPAT"> F  </i>
  </separator>
  <separator name="electronic" >
   <i type="string" name="PREC">normal</i>
   <i name="ENMAX">    400.00000000</i>
   <i name="ENAUG">    644.87300000</i>
   <i name="EDIFF">      0.00010000</i>
   <i type="int" name="IALGO">    68</i>
   <i type="int" name="IWAVPR">    10</i>
   <i type="int" name="NBANDS">    30</i>
   <i type="int" name="NBANDSLOW">    -1</i>
   <i type="int" name="NBANDSHIGH">    -1</i>
   <i name="NELECT">     42.00000000</i>
   <i type="int" name="TURBO">     0</i>
   <i type="int" name="IRESTART">     0</i>
   <i type="int" name="NREBOOT">     0</i>
   <i type="int" name="NMIN">     0</i>
   <i name="EREF">      0.00000000</i>
   <separator name="electronic smearing" >
    <i type="int" name="ISMEAR">     0</i>
    <i name="SIGMA">      0.05000000</i>
    <i name="KSPACING">      0.50000000</i>
    <i type="logical" name="KGAMMA"> T  </i>
    <i type="logical" name="KBLOWUP"> T  </i>
   </separator>
   <separator name="electronic projectors" >
    <i type="logical" name="LREAL"> F  </i>
    <v name="ROPT">      0.00000000      0.00000000      0.00000000</v>
    <i type="int" name="LMAXPAW">  -100</i>
    <i type="int" name="LMAXMIX">     2</i>
    <i type="logical" name="NLSPLINE"> F  </i>
   </separator>
   <separator name="electronic startup" >
    <i type="int" name="ISTART">     0</i>
    <i type="int" name="ICHARG">     2</i>
    <i type="int" name="INIWAV">     1</i>
   </separator>
   <separator name="electronic spin" >
    <i type="int" name="ISPIN">     1</i>
    <i type="logical" name="LNONCOLLINEAR"> F  </i>
    <v name="MAGMOM">      1.00000000      1.00000000      1.00000000      1.00000000      1.00000000      1.00000000      1.00000000      1.00000000      1.00000000      1.00000000      1.00000000      1.00000000      1.00000000      1.00000000      1.00000000      1.00000000      1.00000000</v>
    <i name="NUPDOWN">     -1.00000000</i>
    <i type="logical" name="LSORBIT"> F  </i>
    <v name="SAXIS">      0.00000000      0.00000000      1.00000000</v>
    <i type="logical" name="LSPIRAL"> F  </i>
    <v name="QSPIRAL">      0.00000000      0.00000000      0.00000000</v>
    <i type="logical" name="LZEROZ"> F  </i>
   </separator>
   <separator name="electronic exchange-correlation" >
    <i type="logical" name="LASPH"> F  </i>
    <i type="logical" name="LMETAGGA"> F  </i>
   </separator>
   <separator name="electronic convergence" >
    <i type="int" name="NELM">    60</i>
    <i type="int" name="NELMDL">     0</i>
    <i type="int" name="NELMIN">     2</i>
    <i name="ENINI">    400.00000000</i>
    <separator name="electronic convergence detail" >
     <i type="logical" name="LDIAG"> T  </i>
     <i type="logical" name="LSUBROT"> F  </i>
     <i name="WEIMIN">      0.00000000</i>
     <i name="EBREAK">      0.00000083</i>
     <i name="DEPER">      0.30000000</i>
     <i type="int" name="NRMM">     4</i>
     <i name="TIME">      0.40000000</i>
    </separator>
   </separator>
   <separator name="electronic mixer" >
    <i name="AMIX">      0.40000000</i>
    <i name="BMIX">      1.00000000</i>
    <i name="AMIN">      0.10000000</i>
    <i name="AMIX_MAG">      1.60000000</i>
    <i name="BMIX_MAG">      1.00000000</i>
    <separator name="electronic mixer details" >
     <i type="int" name="IMIX">     4</i>
     <i type="logical" name="MIXFIRST"> F  </i>
     <i type="int" name="MAXMIX">   -45</i>
     <i name="WC">    100.00000000</i>
     <i type="int" name="INIMIX">     1</i>
     <i type="int" name="MIXPRE">     1</i>
     <i type="int" name="MREMOVE">     5</i>
    </separator>
   </separator>
   <separator name="electronic dipolcorrection" >
    <i type="logical" name="LDIPOL"> F  </i>
    <i type="logical" name="LMONO"> F  </i>
    <i type="int" name="IDIPOL">     0</i>
    <i name="EPSILON">      1.00000000</i>
    <v name="DIPOL">   -100.00000000   -100.00000000   -100.00000000</v>
    <i name="EFIELD">      0.00000000</i>
   </separator>
  </separator>
  <separator name="grids" >
   <i type="int" name="NGX">    80</i>
   <i type="int" name="NGY">    80</i>
   <i type="int" name="NGZ">    80</i>
   <i type="int" name="NGXF">   160</i>
   <i type="int" name="NGYF">   160</i>
   <i type="int" name="NGZF">   160</i>
   <i type="logical" name="ADDGRID"> F  </i>
  </separator>
  <separator name="ionic" >
   <i type="int" name="NSW">     0</i>
   <i type="int" name="IBRION">    -1</i>
   <i type="int" name="MDALGO">     0</i>
   <i type="int" name="ISIF">     2</i>
   <i name="PSTRESS">      0.00000000</i>
   <i name="EDIFFG">      0.00100000</i>
   <i type="int" name="NFREE">     0</i>
   <i name="POTIM">      0.50000000</i>
   <i name="SMASS">     -3.00000000</i>
   <i name="SCALEE">      1.00000000</i>
  </separator>
  <separator name="ionic md" >
   <i name="TEBEG">      0.00010000</i>
   <i name="TEEND">      0.00010000</i>
   <i type="int" name="NBLOCK">     1</i>
   <i type="int" name="KBLOCK">     1</i>
   <i type="int" name="NPACO">   256</i>
   <i name="APACO">     10.00000000</i>
  </separator>
  <separator name="symmetry" >
   <i type="int" name="ISYM">     2</i>
   <i name="SYMPREC">      0.00001000</i>
  </separator>
  <separator name="dos" >
   <i type="int" name="LORBIT">     0</i>
   <v name="RWIGS">     -1.00000000     -1.00000000     -1.00000000</v>
   <i type="int" name="NEDOS">   301</i>
   <i name="EMIN">     10.00000000</i>
   <i name="EMAX">    -10.00000000</i>
   <i name="EFERMI">      0.00000000</i>
  </separator>
  <separator name="writing" >
   <i type="int" name="NWRITE">     2</i>
   <i type="logical" name="LWAVE"> F  </i>
   <i type="logical" name="LDOWNSAMPLE"> F  </i>
   <i type="logical" name="LCHARG"> F  </i>
   <i type="logical" name="LPARD"> F  </i>
   <i type="logical" name="LVTOT"> F  </i>
   <i type="logical" name="LVHAR"> F  </i>
   <i type="logical" name="LELF"> F  </i>
   <i type="logical" name="LOPTICS"> F  </i>
   <v name="STM">      0.00000000      0.00000000      0.00000000      0.00000000      0.00000000      0.00000000      0.00000000</v>
  </separator>
  <separator name="performance" >
   <i type="int" name="NPAR">    10</i>
   <i type="int" name="NSIM">     4</i>
   <i type="int" name="NBLK">    -1</i>
   <i type="logical" name="LPLANE"> T  </i>
   <i type="logical" name="LSCALAPACK"> T  </i>
   <i type="logical" name="LSCAAWARE"> F  </i>
   <i type="logical" name="LSCALU"> F  </i>
   <i type="logical" name="LASYNC"> F  </i>
   <i type="logical" name="LORBITALREAL"> F  </i>
  </separator>
  <separator name="miscellaneous" >
   <i type="int" name="IDIOT">     3</i>
   <i type="int" name="PHON_NSTRUCT">    -1</i>
   <i type="logical" name="LMUSIC"> F  </i>
   <v name="POMASS">     12.01100000      1.00000000     14.00100000</v>
   <v name="DARWINR">      0.00000000      0.00000000      0.00000000</v>
   <v name="DARWINV">      1.00000000      1.00000000      1.00000000</v>
   <i type="logical" name="LCORR"> T  </i>
  </separator>
  <i type="logical" name="GGA_COMPAT"> T  </i>
  <i type="logical" name="LBERRY"> F  </i>
  <i type="int" name="ICORELEVEL">     0</i>
  <i type="logical" name="LDAU"> F  </i>
  <i type="int" name="I_CONSTRAINED_M">     0</i>
  <separator name="electronic exchange-correlation" >
   <i type="string" name="GGA">PE</i>
   <i type="int" name="VOSKOWN">     0</i>
   <i type="logical" name="LHFCALC"> F  </i>
   <i type="string" name="PRECFOCK"></i>
   <i type="logical" name="LSYMGRAD"> F  </i>
   <i type="logical" name="LHFONE"> F  </i>
   <i type="logical" name="LRHFCALC"> F  </i>
   <i type="logical" name="LTHOMAS"> F  </i>
   <i type="logical" name="LMODELHF"> F  </i>
   <i type="logical" name="LFOCKACE"> F  </i>
   <i name="ENCUT4O">     -1.00000000</i>
   <i type="int" name="EXXOEP">     0</i>
   <i type="int" name="FOURORBIT">     0</i>
   <i name="AEXX">      0.00000000</i>
   <i name="HFALPHA">      0.00000000</i>
   <i name="MCALPHA">      0.00000000</i>
   <i name="ALDAX">      1.00000000</i>
   <i name="AGGAX">      1.00000000</i>
   <i name="ALDAC">      1.00000000</i>
   <i name="AGGAC">      1.00000000</i>
   <i type="int" name="NKREDX">     1</i>
   <i type="int" name="NKREDY">     1</i>
   <i type="int" name="NKREDZ">     1</i>
   <i type="logical" name="SHIFTRED"> F  </i>
   <i type="logical" name="ODDONLY"> F  </i>
   <i type="logical" name="EVENONLY"> F  </i>
   <i type="int" name="LMAXFOCK">     0</i>
   <i type="int" name="NMAXFOCKAE">     0</i>
   <i type="logical" name="LFOCKAEDFT"> F  </i>
   <i name="HFSCREEN">      0.00000000</i>
   <i name="HFSCREENC">      0.00000000</i>
   <i type="int" name="NBANDSGWLOW">     0</i>
  </separator>
  <separator name="vdW DFT" >
   <i type="logical" name="LUSE_VDW"> F  </i>
   <i name="Zab_VDW">     -0.84910000</i>
   <i name="PARAM1">      0.12340000</i>
   <i name="PARAM2">      1.00000000</i>
   <i name="PARAM3">      0.00000000</i>
  </separator>
  <separator name="model GW" >
   <i type="int" name="MODEL_GW">     0</i>
   <i name="MODEL_EPS0">    128.95995071</i>
   <i name="MODEL_ALPHA">      1.00000000</i>
  </separator>
  <separator name="linear response parameters" >
   <i type="logical" name="LEPSILON"> F  </i>
   <i type="logical" name="LRPA"> F  </i>
   <i type="logical" name="LNABLA"> F  </i>
   <i type="logical" name="LVEL"> F  </i>
   <i name="CSHIFT">      0.10000000</i>
   <i name="OMEGAMAX">     -1.00000000</i>
   <i name="DEG_THRESHOLD">      0.00200000</i>
   <i name="RTIME">     -0.10000000</i>
   <i name="WPLASMAI">      0.00000000</i>
   <v name="DFIELD">      0.00000000      0.00000000      0.00000000</v>
   <v name="WPLASMA">      0.00000000      0.00000000      0.00000000      0.00000000      0.00000000      0.00000000      0.00000000      0.00000000      0.00000000</v>
  </separator>
  <separator name="orbital magnetization" >
   <i type="logical" name="NUCIND"> F  </i>
   <v name="MAGPOS">      0.00000000      0.00000000      0.00000000</v>
   <i type="logical" name="LNICSALL"> T  </i>
   <i type="logical" name="ORBITALMAG"> F  </i>
   <i type="logical" name="LMAGBLOCH"> F  </i>
   <i type="logical" name="LCHIMAG"> F  </i>
   <i type="logical" name="LGAUGE"> T  </i>
   <i type="int" name="MAGATOM">     0</i>
   <v name="MAGDIPOL">      0.00000000      0.00000000      0.00000000</v>
   <v name="AVECCONST">      0.00000000      0.00000000      0.00000000</v>
  </separator>
  <separator name="response functions" >
   <i type="logical" name="LFINITE_TEMPERATURE"> F  </i>
   <i type="logical" name="LADDER"> F  </i>
   <i type="logical" name="LRPAFORCE"> F  </i>
   <i type="logical" name="LFXC"> F  </i>
   <i type="logical" name="LHARTREE"> T  </i>
   <i type="int" name="IBSE">     0</i>
   <v type="int" name="KPOINT">    -1     0     0     0</v>
   <i type="logical" name="LTCTC"> F  </i>
   <i type="logical" name="LTCTE"> F  </i>
   <i type="logical" name="LTETE"> F  </i>
   <i type="logical" name="LTRIPLET"> F  </i>
   <i type="logical" name="LFXCEPS"> F  </i>
   <i type="logical" name="LFXHEG"> F  </i>
   <i type="int" name="NATURALO">     2</i>
   <i type="logical" name="LHOLEGF"> F  </i>
   <i type="logical" name="L2ORDER"> F  </i>
   <i type="logical" name="LDMP1"> F  </i>
   <i type="logical" name="LMP2LT"> F  </i>
   <i type="logical" name="LSMP2LT"> F  </i>
   <i type="logical" name="LGWLF"> F  </i>
   <i name="ENCUTGW">     -2.00000000</i>
   <i name="ENCUTGWSOFT">     -2.00000000</i>
   <i name="ENCUTLF">     -1.00000000</i>
   <i type="logical" name="LESF_SPLINES"> F  </i>
   <i type="int" name="LMAXMP2">    -1</i>
   <i name="SCISSOR">      0.00000000</i>
   <i type="int" name="NOMEGA">     0</i>
   <i type="int" name="NOMEGAR">     0</i>
   <i type="int" name="NBANDSGW">    -1</i>
   <i type="int" name="NBANDSO">    -1</i>
   <i type="int" name="NBANDSV">    -1</i>
   <i type="int" name="NELMGW">     1</i>
   <i type="int" name="NELMHF">     1</i>
   <i type="int" name="DIM">     3</i>
   <i type="int" name="IESPILON">     4</i>
   <i type="int" name="ANTIRES">     0</i>
   <i name="OMEGAMAX">    -30.00000000</i>
   <i name="OMEGAMIN">    -30.00000000</i>
   <i name="OMEGATL">   -200.00000000</i>
   <i type="int" name="OMEGAGRID">     0</i>
   <i name="CSHIFT">     -0.10000000</i>
   <i type="logical" name="LSELFENERGY"> F  </i>
   <i type="logical" name="LSPECTRAL"> F  </i>
   <i type="logical" name="LSPECTRALGW"> F  </i>
   <i type="logical" name="LSINGLES"> F  </i>
   <i type="logical" name="LFERMIGW"> F  </i>
   <i type="logical" name="ODDONLYGW"> F  </i>
   <i type="logical" name="EVENONLYGW"> F  </i>
   <i type="int" name="NKREDLFX">     1</i>
   <i type="int" name="NKREDLFY">     1</i>
   <i type="int" name="NKREDLFZ">     1</i>
   <i type="int" name="MAXMEM">  2800</i>
   <i type="int" name="TELESCOPE">     0</i>
   <i type="int" name="NTAUPAR">    -1</i>
   <i type="int" name="NOMEGAPAR">    -1</i>
   <i name="DAMP_NEWTON">      0.80000001</i>
   <i name="LAMBDA">      1.00000000</i>
  </separator>
  <separator name="External order field" >
   <i name="OFIELD_KAPPA">      0.00000000</i>
   <v name="OFIELD_K">      0.00000000      0.00000000      0.00000000</v>
   <i name="OFIELD_Q6_NEAR">      0.00000000</i>
   <i name="OFIELD_Q6_FAR">      0.00000000</i>
   <i name="OFIELD_A">      0.00000000</i>
  </separator>
  <separator name="optional k-points parameters" >
   <i type="int" name="KPOINTS_OPT_MODE">     1</i>
   <i type="logical" name="LKPOINTS_OPT"> F  </i>
  </separator>
 </parameters>
 <atominfo>
  <atoms>      17 </atoms>
  <types>       3 </types>
  <array name="atoms" >
   <dimension dim="1">ion</dimension>
   <field type="string">element</field>
   <field type="int">atomtype</field>
   <set>
    <rc><c>C </c><c>   1</c></rc>
    <rc><c>C </c><c>   1</c></rc>
    <rc><c>C </c><c>   1</c></rc>
    <rc><c>C </c><c>   1</c></rc>
    <rc><c>C </c><c>   1</c></rc>
    <rc><c>C </c><c>   1</c></rc>
    <rc><c>C </c><c>   1</c></rc>
    <rc><c>H </c><c>   2</c></rc>
    <rc><c>H </c><c>   2</c></rc>
    <rc><c>H </c><c>   2</c></rc>
    <rc><c>H </c><c>   2</c></rc>
    <rc><c>H </c><c>   2</c></rc>
    <rc><c>H </c><c>   2</c></rc>
    <rc><c>H </c><c>   2</c></rc>
    <rc><c>H </c><c>   2</c></rc>
    <rc><c>H </c><c>   2</c></rc>
    <rc><c>N </c><c>   3</c></rc>
   </set>
  </array>
  <array name="atomtypes" >
   <dimension dim="1">type</dimension>
   <field type="int">atomspertype</field>
   <field type="string">element</field>
   <field>mass</field>
   <field>valence</field>
   <field type="string">pseudopotential</field>
   <set>
    <rc><c>   7</c><c>C </c><c>     12.01100000</c><c>      4.00000000</c><c>  PAW_PBE C 08Apr2002                   </c></rc>
    <rc><c>   9</c><c>H </c><c>      1.00000000</c><c>      1.00000000</c><c>  PAW_PBE H 15Jun2001                   </c></rc>
    <rc><c>   1</c><c>N </c><c>     14.00100000</c><c>      5.00000000</c><c>  PAW_PBE N 08Apr2002                   </c></rc>
   </set>
  </array>
 </atominfo>
 <structure name="initialpos" >
  <crystal>
   <varray name="basis" >
    <v>      15.40225029       0.00000000       0.00000000 </v>
    <v>       0.00000000      15.40225029       0.00000000 </v>
    <v>       0.00000000       0.00000000      15.40225029 </v>
   </varray>
   <i name="volume">   3653.86527022 </i>
   <varray name="rec_basis" >
    <v>       0.06492558       0.00000000       0.00000000 </v>
    <v>       0.00000000       0.06492558       0.00000000 </v>
    <v>       0.00000000       0.00000000       0.06492558 </v>
   </varray>
  </crystal>
  <varray name="positions" >
   <v>       0.34669186       0.43761808       0.56319726 </v>
   <v>       0.34206322       0.52416831       0.57054502 </v>
   <v>       0.41969192       0.58325813       0.56666915 </v>
   <v>       0.43067691       0.38888499       0.55283782 </v>
   <v>       0.51000948       0.44526587       0.57335808 </v>
   <v>       0.50033660       0.53555646       0.53069251 </v>
   <v>       0.57864302       0.58780185       0.54200920 </v>
   <v>       0.28697690       0.39932806       0.56497494 </v>
   <v>       0.43059382       0.33140102       0.59544392 </v>
   <v>       0.43526490       0.36283804       0.48611437 </v>
   <v>       0.27893125       0.55530655       0.57949124 </v>
   <v>       0.43435684       0.60939487       0.63178787 </v>
   <v>       0.40540404       0.64018300       0.52582907 </v>
   <v>       0.57003594       0.41385022       0.55100791 </v>
   <v>       0.51601838       0.45426761       0.64403415 </v>
   <v>       0.49124985       0.52610979       0.46017750 </v>
   <v>       0.64109004       0.62934502       0.55261525 </v>
  </varray>
 </structure>
 <calculation>
  <scstep>
   <time name="dav">    0.55    0.55</time>
   <time name="total">    1.19    1.20</time>
   <energy>
    <i name="alphaZ">      2.15216506 </i>
    <i name="ewald">   2553.42542172 </i>
    <i name="hartreedc">  -3493.34953091 </i>
    <i name="XCdc">    131.24154545 </i>
    <i name="pawpsdc">    983.79330320 </i>
    <i name="pawaedc">   -989.05002801 </i>
    <i name="eentropy">     -0.00580529 </i>
    <i name="bandstr">   -299.28669274 </i>
    <i name="atom">   1406.67326350 </i>
    <i name="e_fr_energy">    295.59364198 </i>
    <i name="e_wo_entrp">    295.59944727 </i>
    <i name="e_0_energy">    295.59654462 </i>
   </energy>
  </scstep>
  <scstep>
   <time name="dav">    0.50    0.50</time>
   <time name="total">    0.50    0.50</time>
   <energy>
    <i name="e_fr_energy">     48.01384129 </i>
    <i name="e_wo_entrp">     48.01384129 </i>
    <i name="e_0_energy">     48.01384129 </i>
   </energy>
  </scstep>
  <scstep>
   <time name="dav">    0.40    0.40</time>
   <time name="total">    0.40    0.40</time>
   <energy>
    <i name="e_fr_energy">    -95.48997732 </i>
    <i name="e_wo_entrp">    -95.48997732 </i>
    <i name="e_0_energy">    -95.48997732 </i>
   </energy>
  </scstep>
  <scstep>
   <time name="dav">    0.44    0.44</time>
   <time name="total">    0.44    0.44</time>
   <energy>
    <i name="e_fr_energy">   -113.77675582 </i>
    <i name="e_wo_entrp">   -113.77675582 </i>
    <i name="e_0_energy">   -113.77675582 </i>
   </energy>
  </scstep>
  <scstep>
   <time name="dav">    0.44    0.44</time>
   <time name="total">    0.50    0.50</time>
   <energy>
    <i name="e_fr_energy">   -114.08430634 </i>
    <i name="e_wo_entrp">   -114.08430634 </i>
    <i name="e_0_energy">   -114.08430634 </i>
   </energy>
  </scstep>
  <scstep>
   <time name="diag">    0.07    0.07</time>
   <time name="diis">    0.46    0.46</time>
   <time name="orth">    0.00    0.00</time>
   <time name="total">    0.82    0.82</time>
   <energy>
    <i name="e_fr_energy">   -105.88628863 </i>
    <i name="e_wo_entrp">   -105.88628863 </i>
    <i name="e_0_energy">   -105.88628863 </i>
   </energy>
  </scstep>
  <scstep>
   <time name="diag">    0.06    0.06</time>
   <time name="diis">    0.46    0.46</time>
   <time name="orth">    0.00    0.00</time>
   <time name="total">    0.82    0.82</time>
   <energy>
    <i name="e_fr_energy">   -103.85497056 </i>
    <i name="e_wo_entrp">   -103.85497056 </i>
    <i name="e_0_energy">   -103.85497056 </i>
   </energy>
  </scstep>
  <scstep>
   <time name="diag">    0.07    0.07</time>
   <time name="diis">    0.47    0.47</time>
   <time name="orth">    0.00    0.00</time>
   <time name="total">    0.84    0.84</time>
   <energy>
    <i name="e_fr_energy">   -103.67249742 </i>
    <i name="e_wo_entrp">   -103.67249742 </i>
    <i name="e_0_energy">   -103.67249742 </i>
   </energy>
  </scstep>
  <scstep>
   <time name="diag">    0.07    0.07</time>
   <time name="diis">    0.48    0.48</time>
   <time name="orth">    0.00    0.00</time>
   <time name="total">    0.84    0.84</time>
   <energy>
    <i name="e_fr_energy">   -103.56591514 </i>
    <i name="e_wo_entrp">   -103.56591514 </i>
    <i name="e_0_energy">   -103.56591514 </i>
   </energy>
  </scstep>
  <scstep>
   <time name="diag">    0.06    0.06</time>
   <time name="diis">    0.53    0.53</time>
   <time name="orth">    0.00    0.00</time>
   <time name="total">    0.90    0.90</time>
   <energy>
    <i name="e_fr_energy">   -103.56463251 </i>
    <i name="e_wo_entrp">   -103.56463251 </i>
    <i name="e_0_energy">   -103.56463251 </i>
   </energy>
  </scstep>
  <scstep>
   <time name="diag">    0.07    0.07</time>
   <time name="diis">    0.48    0.48</time>
   <time name="orth">    0.00    0.00</time>
   <time name="total">    0.85    0.85</time>
   <energy>
    <i name="e_fr_energy">   -103.57535287 </i>
    <i name="e_wo_entrp">   -103.57535287 </i>
    <i name="e_0_energy">   -103.57535287 </i>
   </energy>
  </scstep>
  <scstep>
   <time name="diag">    0.07    0.07</time>
   <time name="diis">    0.50    0.50</time>
   <time name="orth">    0.00    0.00</time>
   <time name="total">    0.87    0.90</time>
   <energy>
    <i name="e_fr_energy">   -103.57121180 </i>
    <i name="e_wo_entrp">   -103.57121180 </i>
    <i name="e_0_energy">   -103.57121180 </i>
   </energy>
  </scstep>
  <scstep>
   <time name="diag">    0.06    0.07</time>
   <time name="diis">    0.46    0.47</time>
   <time name="orth">    0.00    0.00</time>
   <time name="total">    0.84    0.85</time>
   <energy>
    <i name="e_fr_energy">   -103.57713468 </i>
    <i name="e_wo_entrp">   -103.57713468 </i>
    <i name="e_0_energy">   -103.57713468 </i>
   </energy>
  </scstep>
  <scstep>
   <time name="diag">    0.06    0.06</time>
   <time name="diis">    0.45    0.45</time>
   <time name="orth">    0.00    0.00</time>
   <time name="total">    0.82    0.82</time>
   <energy>
    <i name="e_fr_energy">   -103.58019439 </i>
    <i name="e_wo_entrp">   -103.58019439 </i>
    <i name="e_0_energy">   -103.58019439 </i>
   </energy>
  </scstep>
  <scstep>
   <time name="diag">    0.06    0.06</time>
   <time name="diis">    0.45    0.45</time>
   <time name="orth">    0.00    0.00</time>
   <time name="total">    0.80    0.80</time>
   <energy>
    <i name="e_fr_energy">   -103.59063235 </i>
    <i name="e_wo_entrp">   -103.59063235 </i>
    <i name="e_0_energy">   -103.59063235 </i>
   </energy>
  </scstep>
  <scstep>
   <time name="diag">    0.06    0.06</time>
   <time name="diis">    0.41    0.41</time>
   <time name="orth">    0.00    0.00</time>
   <time name="total">    0.76    0.76</time>
   <energy>
    <i name="e_fr_energy">   -103.59344872 </i>
    <i name="e_wo_entrp">   -103.59344872 </i>
    <i name="e_0_energy">   -103.59344872 </i>
   </energy>
  </scstep>
  <scstep>
   <time name="diag">    0.07    0.07</time>
   <time name="diis">    0.45    0.45</time>
   <time name="orth">    0.00    0.00</time>
   <time name="total">    0.81    0.81</time>
   <energy>
    <i name="e_fr_energy">   -103.59730888 </i>
    <i name="e_wo_entrp">   -103.59730888 </i>
    <i name="e_0_energy">   -103.59730888 </i>
   </energy>
  </scstep>
  <scstep>
   <time name="diag">    0.07    0.07</time>
   <time name="diis">    0.37    0.37</time>
   <time name="orth">    0.00    0.00</time>
   <time name="total">    0.73    0.73</time>
   <energy>
    <i name="e_fr_energy">   -103.59767982 </i>
    <i name="e_wo_entrp">   -103.59767982 </i>
    <i name="e_0_energy">   -103.59767982 </i>
   </energy>
  </scstep>
  <scstep>
   <time name="diag">    0.07    0.07</time>
   <time name="diis">    0.37    0.37</time>
   <time name="orth">    0.00    0.00</time>
   <time name="total">    0.73    0.73</time>
   <energy>
    <i name="e_fr_energy">   -103.59852756 </i>
    <i name="e_wo_entrp">   -103.59852756 </i>
    <i name="e_0_energy">   -103.59852756 </i>
   </energy>
  </scstep>
  <scstep>
   <time name="diag">    0.07    0.07</time>
   <time name="diis">    0.35    0.35</time>
   <time name="orth">    0.00    0.00</time>
   <time name="total">    0.64    0.64</time>
   <energy>
    <i name="alphaZ">      2.15216506 </i>
    <i name="ewald">   2553.42542172 </i>
    <i name="hartreedc">  -3686.82351298 </i>
    <i name="XCdc">    140.51147586 </i>
    <i name="pawpsdc">   3451.86222172 </i>
    <i name="pawaedc">  -3458.16404589 </i>
    <i name="eentropy">     -0.00000000 </i>
    <i name="bandstr">   -513.23560383 </i>
    <i name="atom">   1406.67326350 </i>
    <i name="e_fr_energy">   -103.59861484 </i>
    <i name="e_wo_entrp">   -103.59861484 </i>
    <i name="e_0_energy">   -103.59861484 </i>
   </energy>
  </scstep>
  <structure>
   <crystal>
    <varray name="basis" >
     <v>      15.40225029       0.00000000       0.00000000 </v>
     <v>       0.00000000      15.40225029       0.00000000 </v>
     <v>       0.00000000       0.00000000      15.40225029 </v>
    </varray>
    <i name="volume">   3653.86527022 </i>
    <varray name="rec_basis" >
     <v>       0.06492558       0.00000000       0.00000000 </v>
     <v>       0.00000000       0.06492558       0.00000000 </v>
     <v>       0.00000000       0.00000000       0.06492558 </v>
    </varray>
   </crystal>
   <varray name="positions" >
    <v>       0.34669186       0.43761808       0.56319726 </v>
    <v>       0.34206322       0.52416831       0.57054502 </v>
    <v>       0.41969192       0.58325813       0.56666915 </v>
    <v>       0.43067691       0.38888499       0.55283782 </v>
    <v>       0.51000948       0.44526587       0.57335808 </v>
    <v>       0.50033660       0.53555646       0.53069251 </v>
    <v>       0.57864302       0.58780185       0.54200920 </v>
    <v>       0.28697690       0.39932806       0.56497494 </v>
    <v>       0.43059382       0.33140102       0.59544392 </v>
    <v>       0.43526490       0.36283804       0.48611437 </v>
    <v>       0.27893125       0.55530655       0.57949124 </v>
    <v>       0.43435684       0.60939487       0.63178787 </v>
    <v>       0.40540404       0.64018300       0.52582907 </v>
    <v>       0.57003594       0.41385022       0.55100791 </v>
    <v>       0.51601838       0.45426761       0.64403415 </v>
    <v>       0.49124985       0.52610979       0.46017750 </v>
    <v>       0.64109004       0.62934502       0.55261525 </v>
   </varray>
  </structure>
  <varray name="forces" >
   <v>       0.04033043       0.01664897      -0.00440036 </v>
   <v>       0.03984305      -0.00911754      -0.00497367 </v>
   <v>       0.00104799      -0.05055405      -0.01341188 </v>
   <v>      -0.00141393       0.05133985       0.02045356 </v>
   <v>      -0.04032393       0.01068368      -0.03004493 </v>
   <v>       0.00362363       0.00570116       0.04538512 </v>
   <v>      -0.12338484      -0.08323634      -0.02387414 </v>
   <v>      -0.02544251      -0.01591815      -0.00401500 </v>
   <v>      -0.00105504      -0.02145346       0.01655265 </v>
   <v>       0.00291132      -0.00856027      -0.02746021 </v>
   <v>      -0.02244633       0.01203659       0.00287742 </v>
   <v>       0.00669703       0.00528663       0.02557694 </v>
   <v>      -0.00495628       0.02217225      -0.01427113 </v>
   <v>       0.02143943      -0.01045002      -0.00651669 </v>
   <v>      -0.00152184       0.00712788       0.02522637 </v>
   <v>      -0.00690905      -0.00683279      -0.02321417 </v>
   <v>       0.11156088       0.07512560       0.01611015 </v>
  </varray>
  <varray name="stress" >
   <v>      -0.83221762       0.02998254       0.01275597 </v>
   <v>       0.02998254      -0.83329341       0.01487189 </v>
   <v>       0.01275597       0.01487189      -0.80761270 </v>
  </varray>
  <energy>
   <i name="e_fr_energy">   -103.79589774 </i>
   <i name="e_wo_entrp">   -103.79589774 </i>
   <i name="e_0_energy">   -103.79589774 </i>
  </energy>
  <time name="totalsc">   16.22   16.28</time>
  <eigenvalues>
   <array>
    <dimension dim="1">band</dimension>
    <dimension dim="2">kpoint</dimension>
    <dimension dim="3">spin</dimension>
    <field>eigene</field>
    <field>occ</field>
    <set>
     <set comment="spin 1">
      <set comment="kpoint 1">
       <r>  -22.2918    1.0000 </r>
       <r>  -21.1765    1.0000 </r>
       <r>  -19.0979    1.0000 </r>
       <r>  -18.7153    1.0000 </r>
       <r>  -15.9893    1.0000 </r>
       <r>  -15.4568    1.0000 </r>
       <r>  -13.0786    1.0000 </r>
       <r>  -12.9933    1.0000 </r>
       <r>  -11.7999    1.0000 </r>
       <r>  -10.9931    1.0000 </r>
       <r>  -10.5212    1.0000 </r>
       <r>  -10.3648    1.0000 </r>
       <r>   -9.8283    1.0000 </r>
       <r>   -9.6414    1.0000 </r>
       <r>   -8.7374    1.0000 </r>
       <r>   -8.5447    1.0000 </r>
       <r>   -8.2884    1.0000 </r>
       <r>   -7.9199    1.0000 </r>
       <r>   -7.5797    1.0000 </r>
       <r>   -7.4770    1.0000 </r>
       <r>   -6.1225    1.0000 </r>
       <r>   -0.9281    0.0000 </r>
       <r>   -0.5770    0.0000 </r>
       <r>   -0.1345    0.0000 </r>
       <r>   -0.0765    0.0000 </r>
       <r>   -0.0169    0.0000 </r>
       <r>    0.0440    0.0000 </r>
       <r>    0.1806    0.0000 </r>
       <r>    0.5746    0.0000 </r>
       <r>    0.7713    0.0000 </r>
      </set>
     </set>
    </set>
   </array>
  </eigenvalues>
  <separator name="orbital magnetization" >
   <v name="MAGDIPOLOUT">      0.00000000      0.00000000      0.00000000</v>
  </separator>
  <dos>
   <i name="efermi">     -5.85025358 </i>
   <total>
    <array>
     <dimension dim="1">gridpoints</dimension>
     <dimension dim="2">spin</dimension>
     <field>energy</field>
     <field>total</field>
     <field>integrated</field>
     <set>
      <set comment="spin 1">
       <r>   -23.4450     0.0000     0.0000 </r>
       <r>   -23.3604     0.0000     0.0000 </r>
       <r>   -23.2759     0.0000     0.0000 </r>
       <r>   -23.1913     0.0000     0.0000 </r>
       <r>   -23.1067     0.0000     0.0000 </r>
       <r>   -23.0222     0.0000     0.0000 </r>
       <r>   -22.9376     0.0000     0.0000 </r>
       <r>   -22.8530     0.0000     0.0000 </r>
       <r>   -22.7685     0.0000     0.0000 </r>
       <r>   -22.6839     0.0000     0.0000 </r>
       <r>   -22.5993     0.0000     0.0000 </r>
       <r>   -22.5148     0.0000     0.0000 </r>
       <r>   -22.4302     0.0011     0.0001 </r>
       <r>   -22.3457     1.5124     0.1280 </r>
       <r>   -22.2611    17.5911     1.6156 </r>
       <r>   -22.1765     4.5329     1.9989 </r>
       <r>   -22.0920     0.0131     2.0000 </r>
       <r>   -22.0074     0.0000     2.0000 </r>
       <r>   -21.9228     0.0000     2.0000 </r>
       <r>   -21.8383     0.0000     2.0000 </r>
       <r>   -21.7537     0.0000     2.0000 </r>
       <r>   -21.6691     0.0000     2.0000 </r>
       <r>   -21.5846     0.0000     2.0000 </r>
       <r>   -21.5000     0.0000     2.0000 </r>
       <r>   -21.4154     0.0000     2.0000 </r>
       <r>   -21.3309     0.0001     2.0000 </r>
       <r>   -21.2463     0.5712     2.0483 </r>
       <r>   -21.1617    15.0794     3.3235 </r>
       <r>   -21.0772     7.9411     3.9950 </r>
       <r>   -20.9926     0.0587     4.0000 </r>
       <r>   -20.9081     0.0000     4.0000 </r>
       <r>   -20.8235     0.0000     4.0000 </r>
       <r>   -20.7389     0.0000     4.0000 </r>
       <r>   -20.6544     0.0000     4.0000 </r>
       <r>   -20.5698     0.0000     4.0000 </r>
       <r>   -20.4852     0.0000     4.0000 </r>
       <r>   -20.4007     0.0000     4.0000 </r>
       <r>   -20.3161     0.0000     4.0000 </r>
       <r>   -20.2315     0.0000     4.0000 </r>
       <r>   -20.1470     0.0000     4.0000 </r>
       <r>   -20.0624     0.0000     4.0000 </r>
       <r>   -19.9778     0.0000     4.0000 </r>
       <r>   -19.8933     0.0000     4.0000 </r>
       <r>   -19.8087     0.0000     4.0000 </r>
       <r>   -19.7241     0.0000     4.0000 </r>
       <r>   -19.6396     0.0000     4.0000 </r>
       <r>   -19.5550     0.0000     4.0000 </r>
       <r>   -19.4705     0.0000     4.0000 </r>
       <r>   -19.3859     0.0000     4.0000 </r>
       <r>   -19.3013     0.0000     4.0000 </r>
       <r>   -19.2168     0.0091     4.0008 </r>
       <r>   -19.1322     3.9151     4.3318 </r>
       <r>   -19.0476    17.8912     5.8448 </r>
       <r>   -18.9631     1.8335     5.9999 </r>
       <r>   -18.8785     0.0017     6.0000 </r>
       <r>   -18.7939     0.3080     6.0260 </r>
       <r>   -18.7094    13.0797     7.1321 </r>
       <r>   -18.6248    10.1384     7.9895 </r>
       <r>   -18.5402     0.1244     8.0000 </r>
       <r>   -18.4557     0.0000     8.0000 </r>
       <r>   -18.3711     0.0000     8.0000 </r>
       <r>   -18.2865     0.0000     8.0000 </r>
       <r>   -18.2020     0.0000     8.0000 </r>
       <r>   -18.1174     0.0000     8.0000 </r>
       <r>   -18.0329     0.0000     8.0000 </r>
       <r>   -17.9483     0.0000     8.0000 </r>
       <r>   -17.8637     0.0000     8.0000 </r>
       <r>   -17.7792     0.0000     8.0000 </r>
       <r>   -17.6946     0.0000     8.0000 </r>
       <r>   -17.6100     0.0000     8.0000 </r>
       <r>   -17.5255     0.0000     8.0000 </r>
       <r>   -17.4409     0.0000     8.0000 </r>
       <r>   -17.3563     0.0000     8.0000 </r>
       <r>   -17.2718     0.0000     8.0000 </r>
       <r>   -17.1872     0.0000     8.0000 </r>
       <r>   -17.1026     0.0000     8.0000 </r>
       <r>   -17.0181     0.0000     8.0000 </r>
       <r>   -16.9335     0.0000     8.0000 </r>
       <r>   -16.8489     0.0000     8.0000 </r>
       <r>   -16.7644     0.0000     8.0000 </r>
       <r>   -16.6798     0.0000     8.0000 </r>
       <r>   -16.5953     0.0000     8.0000 </r>
       <r>   -16.5107     0.0000     8.0000 </r>
       <r>   -16.4261     0.0000     8.0000 </r>
       <r>   -16.3416     0.0000     8.0000 </r>
       <r>   -16.2570     0.0000     8.0000 </r>
       <r>   -16.1724     0.0000     8.0000 </r>
       <r>   -16.0879     0.0626     8.0053 </r>
       <r>   -16.0033     8.1133     8.6914 </r>
       <r>   -15.9187    14.9301     9.9539 </r>
       <r>   -15.8342     0.5445    10.0000 </r>
       <r>   -15.7496     0.0001    10.0000 </r>
       <r>   -15.6650     0.0000    10.0000 </r>
       <r>   -15.5805     0.0056    10.0005 </r>
       <r>   -15.4959     3.1744    10.2689 </r>
       <r>   -15.4113    18.1251    11.8017 </r>
       <r>   -15.3268     2.3427    11.9998 </r>
       <r>   -15.2422     0.0028    12.0000 </r>
       <r>   -15.1577     0.0000    12.0000 </r>
       <r>   -15.0731     0.0000    12.0000 </r>
       <r>   -14.9885     0.0000    12.0000 </r>
       <r>   -14.9040     0.0000    12.0000 </r>
       <r>   -14.8194     0.0000    12.0000 </r>
       <r>   -14.7348     0.0000    12.0000 </r>
       <r>   -14.6503     0.0000    12.0000 </r>
       <r>   -14.5657     0.0000    12.0000 </r>
       <r>   -14.4811     0.0000    12.0000 </r>
       <r>   -14.3966     0.0000    12.0000 </r>
       <r>   -14.3120     0.0000    12.0000 </r>
       <r>   -14.2274     0.0000    12.0000 </r>
       <r>   -14.1429     0.0000    12.0000 </r>
       <r>   -14.0583     0.0000    12.0000 </r>
       <r>   -13.9737     0.0000    12.0000 </r>
       <r>   -13.8892     0.0000    12.0000 </r>
       <r>   -13.8046     0.0000    12.0000 </r>
       <r>   -13.7201     0.0000    12.0000 </r>
       <r>   -13.6355     0.0000    12.0000 </r>
       <r>   -13.5509     0.0000    12.0000 </r>
       <r>   -13.4664     0.0000    12.0000 </r>
       <r>   -13.3818     0.0000    12.0000 </r>
       <r>   -13.2972     0.0000    12.0000 </r>
       <r>   -13.2127     0.0018    12.0001 </r>
       <r>   -13.1281     1.9107    12.1617 </r>
       <r>   -13.0435    19.7812    13.8345 </r>
       <r>   -12.9590    21.6845    15.6683 </r>
       <r>   -12.8744     3.9138    15.9992 </r>
       <r>   -12.7898     0.0091    16.0000 </r>
       <r>   -12.7053     0.0000    16.0000 </r>
       <r>   -12.6207     0.0000    16.0000 </r>
       <r>   -12.5361     0.0000    16.0000 </r>
       <r>   -12.4516     0.0000    16.0000 </r>
       <r>   -12.3670     0.0000    16.0000 </r>
       <r>   -12.2825     0.0000    16.0000 </r>
       <r>   -12.1979     0.0000    16.0000 </r>
       <r>   -12.1133     0.0000    16.0000 </r>
       <r>   -12.0288     0.0000    16.0000 </r>
       <r>   -11.9442     0.0005    16.0000 </r>
       <r>   -11.8596     1.0752    16.0910 </r>
       <r>   -11.7751    16.8636    17.5170 </r>
       <r>   -11.6905     5.6878    17.9980 </r>
       <r>   -11.6059     0.0234    18.0000 </r>
       <r>   -11.5214     0.0000    18.0000 </r>
       <r>   -11.4368     0.0000    18.0000 </r>
       <r>   -11.3522     0.0000    18.0000 </r>
       <r>   -11.2677     0.0000    18.0000 </r>
       <r>   -11.1831     0.0000    18.0000 </r>
       <r>   -11.0985     0.0340    18.0029 </r>
       <r>   -11.0140     6.5368    18.5557 </r>
       <r>   -10.9294    16.2347    19.9285 </r>
       <r>   -10.8449     0.8447    20.0000 </r>
       <r>   -10.7603     0.0003    20.0000 </r>
       <r>   -10.6757     0.0001    20.0000 </r>
       <r>   -10.5912     0.5671    20.0480 </r>
       <r>   -10.5066    15.0581    21.3214 </r>
       <r>   -10.4220     9.2126    22.1004 </r>
       <r>   -10.3375    17.2640    23.5603 </r>
       <r>   -10.2529     5.1807    23.9984 </r>
       <r>   -10.1683     0.0184    24.0000 </r>
       <r>   -10.0838     0.0000    24.0000 </r>
       <r>    -9.9992     0.0000    24.0000 </r>
       <r>    -9.9146     0.1721    24.0146 </r>
       <r>    -9.8301    11.1679    24.9590 </r>
       <r>    -9.7455    12.1209    25.9840 </r>
       <r>    -9.6609     7.0443    26.5797 </r>
       <r>    -9.5764    16.0147    27.9339 </r>
       <r>    -9.4918     0.7810    28.0000 </r>
       <r>    -9.4073     0.0003    28.0000 </r>
       <r>    -9.3227     0.0000    28.0000 </r>
       <r>    -9.2381     0.0000    28.0000 </r>
       <r>    -9.1536     0.0000    28.0000 </r>
       <r>    -9.0690     0.0000    28.0000 </r>
       <r>    -8.9844     0.0000    28.0000 </r>
       <r>    -8.8999     0.0001    28.0000 </r>
       <r>    -8.8153     0.3253    28.0275 </r>
       <r>    -8.7307    13.2603    29.1489 </r>
       <r>    -8.6462     9.9967    29.9942 </r>
       <r>    -8.5616     7.5590    30.6335 </r>
       <r>    -8.4770    15.5035    31.9445 </r>
       <r>    -8.3925     0.6943    32.0032 </r>
       <r>    -8.3079     6.8291    32.5807 </r>
       <r>    -8.2234    16.0048    33.9342 </r>
       <r>    -8.1388     0.7783    34.0000 </r>
       <r>    -8.0542     0.0020    34.0001 </r>
       <r>    -7.9697     1.8869    34.1597 </r>
       <r>    -7.8851    17.9278    35.6758 </r>
       <r>    -7.8005     3.8254    35.9993 </r>
       <r>    -7.7160     0.0100    36.0001 </r>
       <r>    -7.6314     1.7009    36.1440 </r>
       <r>    -7.5468    18.3539    37.6960 </r>
       <r>    -7.4623    19.2192    39.3213 </r>
       <r>    -7.3777     7.9666    39.9950 </r>
       <r>    -7.2931     0.0591    40.0000 </r>
       <r>    -7.2086     0.0000    40.0000 </r>
       <r>    -7.1240     0.0000    40.0000 </r>
       <r>    -7.0394     0.0000    40.0000 </r>
       <r>    -6.9549     0.0000    40.0000 </r>
       <r>    -6.8703     0.0000    40.0000 </r>
       <r>    -6.7858     0.0000    40.0000 </r>
       <r>    -6.7012     0.0000    40.0000 </r>
       <r>    -6.6166     0.0000    40.0000 </r>
       <r>    -6.5321     0.0000    40.0000 </r>
       <r>    -6.4475     0.0000    40.0000 </r>
       <r>    -6.3629     0.0000    40.0000 </r>
       <r>    -6.2784     0.0001    40.0000 </r>
       <r>    -6.1938     0.5157    40.0436 </r>
       <r>    -6.1092    14.7585    41.2917 </r>
       <r>    -6.0247     8.3091    41.9943 </r>
       <r>    -5.9401     0.0671    42.0000 </r>
       <r>    -5.8555     0.0000    42.0000 </r>
       <r>    -5.7710     0.0000    42.0000 </r>
       <r>    -5.6864     0.0000    42.0000 </r>
       <r>    -5.6018     0.0000    42.0000 </r>
       <r>    -5.5173     0.0000    42.0000 </r>
       <r>    -5.4327     0.0000    42.0000 </r>
       <r>    -5.3482     0.0000    42.0000 </r>
       <r>    -5.2636     0.0000    42.0000 </r>
       <r>    -5.1790     0.0000    42.0000 </r>
       <r>    -5.0945     0.0000    42.0000 </r>
       <r>    -5.0099     0.0000    42.0000 </r>
       <r>    -4.9253     0.0000    42.0000 </r>
       <r>    -4.8408     0.0000    42.0000 </r>
       <r>    -4.7562     0.0000    42.0000 </r>
       <r>    -4.6716     0.0000    42.0000 </r>
       <r>    -4.5871     0.0000    42.0000 </r>
       <r>    -4.5025     0.0000    42.0000 </r>
       <r>    -4.4179     0.0000    42.0000 </r>
       <r>    -4.3334     0.0000    42.0000 </r>
       <r>    -4.2488     0.0000    42.0000 </r>
       <r>    -4.1642     0.0000    42.0000 </r>
       <r>    -4.0797     0.0000    42.0000 </r>
       <r>    -3.9951     0.0000    42.0000 </r>
       <r>    -3.9106     0.0000    42.0000 </r>
       <r>    -3.8260     0.0000    42.0000 </r>
       <r>    -3.7414     0.0000    42.0000 </r>
       <r>    -3.6569     0.0000    42.0000 </r>
       <r>    -3.5723     0.0000    42.0000 </r>
       <r>    -3.4877     0.0000    42.0000 </r>
       <r>    -3.4032     0.0000    42.0000 </r>
       <r>    -3.3186     0.0000    42.0000 </r>
       <r>    -3.2340     0.0000    42.0000 </r>
       <r>    -3.1495     0.0000    42.0000 </r>
       <r>    -3.0649     0.0000    42.0000 </r>
       <r>    -2.9803     0.0000    42.0000 </r>
       <r>    -2.8958     0.0000    42.0000 </r>
       <r>    -2.8112     0.0000    42.0000 </r>
       <r>    -2.7266     0.0000    42.0000 </r>
       <r>    -2.6421     0.0000    42.0000 </r>
       <r>    -2.5575     0.0000    42.0000 </r>
       <r>    -2.4730     0.0000    42.0000 </r>
       <r>    -2.3884     0.0000    42.0000 </r>
       <r>    -2.3038     0.0000    42.0000 </r>
       <r>    -2.2193     0.0000    42.0000 </r>
       <r>    -2.1347     0.0000    42.0000 </r>
       <r>    -2.0501     0.0000    42.0000 </r>
       <r>    -1.9656     0.0000    42.0000 </r>
       <r>    -1.8810     0.0000    42.0000 </r>
       <r>    -1.7964     0.0000    42.0000 </r>
       <r>    -1.7119     0.0000    42.0000 </r>
       <r>    -1.6273     0.0000    42.0000 </r>
       <r>    -1.5427     0.0000    42.0000 </r>
       <r>    -1.4582     0.0000    42.0000 </r>
       <r>    -1.3736     0.0000    42.0000 </r>
       <r>    -1.2890     0.0000    42.0000 </r>
       <r>    -1.2045     0.0000    42.0000 </r>
       <r>    -1.1199     0.0000    42.0000 </r>
       <r>    -1.0354     0.0284    42.0024 </r>
       <r>    -0.9508     6.1227    42.5202 </r>
       <r>    -0.8662    16.5495    43.9197 </r>
       <r>    -0.7817     0.9495    44.0000 </r>
       <r>    -0.6971     0.0085    44.0007 </r>
       <r>    -0.6125     3.7222    44.3154 </r>
       <r>    -0.5280    17.9675    45.8349 </r>
       <r>    -0.4434     1.9509    45.9998 </r>
       <r>    -0.3588     0.0019    46.0000 </r>
       <r>    -0.2743     0.0009    46.0001 </r>
       <r>    -0.1897     1.4149    46.1197 </r>
       <r>    -0.1051    22.5240    48.0245 </r>
       <r>    -0.0206    33.6409    50.8693 </r>
       <r>     0.0640    29.9964    53.4059 </r>
       <r>     0.1486    11.3006    54.3616 </r>
       <r>     0.2331    17.7496    55.8626 </r>
       <r>     0.3177     1.6241    55.9999 </r>
       <r>     0.4022     0.0013    56.0000 </r>
       <r>     0.4868     0.1546    56.0131 </r>
       <r>     0.5714    10.8247    56.9285 </r>
       <r>     0.6559    12.4320    57.9798 </r>
       <r>     0.7405     4.7851    58.3844 </r>
       <r>     0.8251    17.5911    59.8720 </r>
       <r>     0.9096     1.5124    59.9999 </r>
       <r>     0.9942     0.0011    60.0000 </r>
       <r>     1.0788     0.0000    60.0000 </r>
       <r>     1.1633     0.0000    60.0000 </r>
       <r>     1.2479     0.0000    60.0000 </r>
       <r>     1.3325     0.0000    60.0000 </r>
       <r>     1.4170     0.0000    60.0000 </r>
       <r>     1.5016     0.0000    60.0000 </r>
       <r>     1.5862     0.0000    60.0000 </r>
       <r>     1.6707     0.0000    60.0000 </r>
       <r>     1.7553     0.0000    60.0000 </r>
       <r>     1.8398     0.0000    60.0000 </r>
       <r>     1.9244     0.0000    60.0000 </r>
      </set>
     </set>
    </array>
   </total>
  </dos>
 </calculation>
 <structure name="finalpos" >
  <crystal>
   <varray name="basis" >
    <v>      15.40225029       0.00000000       0.00000000 </v>
    <v>       0.00000000      15.40225029       0.00000000 </v>
    <v>       0.00000000       0.00000000      15.40225029 </v>
   </varray>
   <i name="volume">   3653.86527022 </i>
   <varray name="rec_basis" >
    <v>       0.06492558       0.00000000       0.00000000 </v>
    <v>       0.00000000       0.06492558       0.00000000 </v>
    <v>       0.00000000       0.00000000       0.06492558 </v>
   </varray>
  </crystal>
  <varray name="positions" >
   <v>       0.34669186       0.43761808       0.56319726 </v>
   <v>       0.34206322       0.52416831       0.57054502 </v>
   <v>       0.41969192       0.58325813       0.56666915 </v>
   <v>       0.43067691       0.38888499       0.55283782 </v>
   <v>       0.51000948       0.44526587       0.57335808 </v>
   <v>       0.50033660       0.53555646       0.53069251 </v>
   <v>       0.57864302       0.58780185       0.54200920 </v>
   <v>       0.28697690       0.39932806       0.56497494 </v>
   <v>       0.43059382       0.33140102       0.59544392 </v>
   <v>       0.43526490       0.36283804       0.48611437 </v>
   <v>       0.27893125       0.55530655       0.57949124 </v>
   <v>       0.43435684       0.60939487       0.63178787 </v>
   <v>       0.40540404       0.64018300       0.52582907 </v>
   <v>       0.57003594       0.41385022       0.55100791 </v>
   <v>       0.51601838       0.45426761       0.64403415 </v>
   <v>       0.49124985       0.52610979       0.46017750 </v>
   <v>       0.64109004       0.62934502       0.55261525 </v>
  </varray>
 </structure>
</modeling>
