unknown system                          
           1
    15.402250    0.000000    0.000000
     0.000000   15.402250    0.000000
     0.000000    0.000000   15.402250
   C    H    N 
     7     9     1
Direct configuration=     1
   0.34669186  0.43761808  0.56319726
   0.34206322  0.52416831  0.57054502
   0.41969192  0.58325813  0.56666915
   0.43067691  0.38888499  0.55283782
   0.51000948  0.44526587  0.57335808
   0.50033660  0.53555646  0.53069251
   0.57864302  0.58780185  0.54200920
   0.28697690  0.39932806  0.56497494
   0.43059382  0.33140102  0.59544392
   0.43526490  0.36283804  0.48611437
   0.27893125  0.55530655  0.57949124
   0.43435684  0.60939487  0.63178787
   0.40540404  0.64018300  0.52582907
   0.57003594  0.41385022  0.55100791
   0.51601838  0.45426761  0.64403415
   0.49124985  0.52610979  0.46017750
   0.64109004  0.62934502  0.55261525
