 vasp.6.3.2 27Jun22 (build Oct 05 2023 17:59:42) gamma-only                     
  
 POSCAR found type information on POSCAR C H N 
 02/POSCAR found :  3 types and      18 ions
 scaLAPACK will be used
 -----------------------------------------------------------------------------
|                                                                             |
|               ----> ADVICE to this user running VASP <----                  |
|                                                                             |
|     You have a (more or less) 'large supercell' and for larger cells it     |
|     might be more efficient to use real-space projection operators.         |
|     Therefore, try LREAL= Auto in the INCAR file.                           |
|     Mind: For very accurate calculation, you might also keep the            |
|     reciprocal projection scheme (i.e. LREAL=.FALSE.).                      |
|                                                                             |
 -----------------------------------------------------------------------------

 LDA part: xc-table for Pade appr. of Perdew
 POSCAR found type information on POSCAR C H N 
 00/POSCAR found :  3 types and      18 ions
 POSCAR found type information on POSCAR C H N 
 10/POSCAR found :  3 types and      18 ions
 Jacobian:    24.2830561029085     
 POSCAR found type information on POSCAR C H N 
 00/POSCAR found :  3 types and      18 ions
 POSCAR found type information on POSCAR C H N 
 10/POSCAR found :  3 types and      18 ions
 POSCAR, INCAR and KPOINTS ok, starting setup
 FFT: planning ... GRIDC
 FFT: planning ... GRID_SOFT
 FFT: planning ... GRID
 WAVECAR not read
 entering main loop
       N       E                     dE             d eps       ncg     rms          rms(c)
DAV:   1     0.453058573734E+03    0.45306E+03   -0.12635E+04    86   0.725E+02
DAV:   2     0.715846201518E+02   -0.38147E+03   -0.36447E+03   124   0.143E+02
DAV:   3    -0.106287823985E+03   -0.17787E+03   -0.17735E+03    84   0.118E+02
DAV:   4    -0.124768628199E+03   -0.18481E+02   -0.18370E+02    84   0.534E+01
DAV:   5    -0.125162004553E+03   -0.39338E+00   -0.39120E+00   100   0.825E+00    0.185E+01
RMM:   6    -0.116045741598E+03    0.91163E+01   -0.13490E+01    70   0.142E+01    0.101E+01
RMM:   7    -0.113875845904E+03    0.21699E+01   -0.11050E+01    70   0.127E+01    0.409E+00
RMM:   8    -0.113744113286E+03    0.13173E+00   -0.76881E-01    70   0.429E+00    0.218E+00
RMM:   9    -0.113681136223E+03    0.62977E-01   -0.31710E-01    70   0.235E+00    0.386E-01
RMM:  10    -0.113691264901E+03   -0.10129E-01   -0.81168E-02    80   0.108E+00    0.248E-01
RMM:  11    -0.113701228686E+03   -0.99638E-02   -0.19823E-02    70   0.607E-01    0.158E-01
RMM:  12    -0.113704370695E+03   -0.31420E-02   -0.48462E-03    77   0.287E-01    0.127E-01
RMM:  13    -0.113716982369E+03   -0.12612E-01   -0.66505E-03    70   0.278E-01    0.812E-02
RMM:  14    -0.113719245750E+03   -0.22634E-02   -0.23879E-03    71   0.155E-01    0.472E-02
RMM:  15    -0.113728444726E+03   -0.91990E-02   -0.21259E-03    72   0.147E-01    0.282E-02
RMM:  16    -0.113730607444E+03   -0.21627E-02   -0.65114E-04    73   0.724E-02    0.205E-02
RMM:  17    -0.113732747930E+03   -0.21405E-02   -0.36817E-04    70   0.622E-02    0.170E-02
RMM:  18    -0.113733259759E+03   -0.51183E-03   -0.98218E-05    62   0.306E-02    0.755E-03
RMM:  19    -0.113733629502E+03   -0.36974E-03   -0.52425E-05    60   0.211E-02    0.429E-03
RMM:  20    -0.113733732654E+03   -0.10315E-03   -0.13686E-05    45   0.122E-02    0.224E-03
RMM:  21    -0.113733839312E+03   -0.10666E-03   -0.58844E-06    45   0.857E-03    0.138E-03
RMM:  22    -0.113733857518E+03   -0.18206E-04   -0.15669E-06    36   0.477E-03    0.101E-03
RMM:  23    -0.113733873594E+03   -0.16076E-04   -0.89440E-07    33   0.397E-03    0.458E-04
RMM:  24    -0.113733876735E+03   -0.31408E-05   -0.51935E-08    21   0.304E-03
   1 F= -.11403036E+03 E0= -.11403036E+03  d E =-.114030E+03
 BRION: g(F)=  0.700E+00 g(S)=  0.000E+00
 bond charge predicted
       N       E                     dE             d eps       ncg     rms          rms(c)
DAV:   1    -0.113772217998E+03   -0.38344E-01   -0.94765E-01    89   0.553E+00    0.241E-01
RMM:   2    -0.113772453040E+03   -0.23504E-03   -0.16101E-02    70   0.690E-01    0.149E-01
RMM:   3    -0.113772326896E+03    0.12614E-03   -0.33045E-03    70   0.310E-01    0.623E-02
RMM:   4    -0.113772396195E+03   -0.69299E-04   -0.87611E-04    77   0.151E-01    0.318E-02
RMM:   5    -0.113772410052E+03   -0.13857E-04   -0.14441E-04    72   0.670E-02    0.134E-02
RMM:   6    -0.113772415414E+03   -0.53613E-05   -0.38235E-05    55   0.319E-02
   2 F= -.11406890E+03 E0= -.11406890E+03  d E =-.385437E-01
 BRION: g(F)=  0.533E+00 g(S)=  0.000E+00 retain N=  1 mean eig= 1.03
 eig:   1.026
 bond charge predicted
       N       E                     dE             d eps       ncg     rms          rms(c)
DAV:   1    -0.113797918889E+03   -0.25509E-01   -0.52660E-01    76   0.409E+00    0.165E-01
RMM:   2    -0.113798015365E+03   -0.96476E-04   -0.67008E-03    70   0.452E-01    0.951E-02
RMM:   3    -0.113798077700E+03   -0.62334E-04   -0.13872E-03    73   0.190E-01    0.507E-02
RMM:   4    -0.113798107789E+03   -0.30089E-04   -0.28427E-04    73   0.926E-02    0.163E-02
RMM:   5    -0.113798116452E+03   -0.86634E-05   -0.61235E-05    62   0.409E-02
   3 F= -.11409473E+03 E0= -.11409473E+03  d E =-.258279E-01
 BRION: g(F)=  0.468E+00 g(S)=  0.000E+00 retain N=  2 mean eig= 1.17
 eig:   1.166  1.166
 bond charge predicted
       N       E                     dE             d eps       ncg     rms          rms(c)
DAV:   1    -0.113835585703E+03   -0.37478E-01   -0.13713E+00    76   0.652E+00    0.244E-01
RMM:   2    -0.113836144346E+03   -0.55864E-03   -0.15505E-02    70   0.682E-01    0.141E-01
RMM:   3    -0.113836332871E+03   -0.18852E-03   -0.32276E-03    73   0.293E-01    0.715E-02
RMM:   4    -0.113836409368E+03   -0.76497E-04   -0.61802E-04    75   0.134E-01    0.273E-02
RMM:   5    -0.113836433655E+03   -0.24287E-04   -0.13483E-04    74   0.616E-02    0.140E-02
RMM:   6    -0.113836444862E+03   -0.11207E-04   -0.22864E-05    50   0.253E-02    0.457E-03
RMM:   7    -0.113836452197E+03   -0.73351E-05   -0.51222E-06    45   0.116E-02
   4 F= -.11413315E+03 E0= -.11413315E+03  d E =-.384135E-01
 BRION: g(F)=  0.335E+00 g(S)=  0.000E+00 retain N=  3 mean eig= 2.89
 eig:   3.788  3.788  1.082
 bond charge predicted
       N       E                     dE             d eps       ncg     rms          rms(c)
DAV:   1    -0.113901629393E+03   -0.65185E-01   -0.77348E+00    70   0.153E+01    0.559E-01
RMM:   2    -0.113905767782E+03   -0.41384E-02   -0.82526E-02    70   0.158E+00    0.323E-01
RMM:   3    -0.113906686431E+03   -0.91865E-03   -0.16022E-02    72   0.678E-01    0.142E-01
RMM:   4    -0.113907130040E+03   -0.44361E-03   -0.36294E-03    76   0.308E-01    0.523E-02
RMM:   5    -0.113907216819E+03   -0.86779E-04   -0.63087E-04    78   0.138E-01    0.313E-02
RMM:   6    -0.113907255880E+03   -0.39061E-04   -0.12768E-04    73   0.558E-02    0.945E-03
RMM:   7    -0.113907274048E+03   -0.18169E-04   -0.21833E-05    49   0.234E-02    0.565E-03
RMM:   8    -0.113907293102E+03   -0.19053E-04   -0.59726E-06    45   0.124E-02    0.213E-03
RMM:   9    -0.113907308920E+03   -0.15818E-04   -0.27543E-06    44   0.760E-03    0.110E-03
RMM:  10    -0.113907317790E+03   -0.88705E-05   -0.11892E-06    40   0.500E-03
   5 F= -.11420423E+03 E0= -.11420423E+03  d E =-.710805E-01
 BRION: g(F)=  0.203E+00 g(S)=  0.000E+00 retain N=  4 mean eig= 4.72
 eig:   7.757  7.757  1.683  1.683
 bond charge predicted
       N       E                     dE             d eps       ncg     rms          rms(c)
DAV:   1    -0.113911359781E+03   -0.40509E-02   -0.31288E-01    76   0.311E+00    0.142E-01
RMM:   2    -0.113911497362E+03   -0.13758E-03   -0.41362E-03    70   0.345E-01    0.815E-02
RMM:   3    -0.113911577308E+03   -0.79946E-04   -0.93104E-04    74   0.149E-01    0.376E-02
RMM:   4    -0.113911593836E+03   -0.16528E-04   -0.13155E-04    69   0.651E-02    0.140E-02
RMM:   5    -0.113911596705E+03   -0.28692E-05   -0.31611E-05    55   0.313E-02
   6 F= -.11420861E+03 E0= -.11420861E+03  d E =-.438688E-02
 BRION: g(F)=  0.170E+00 g(S)=  0.000E+00 retain N=  4 mean eig= 4.31
 eig:   6.496  6.496  1.075  3.165
 bond charge predicted
       N       E                     dE             d eps       ncg     rms          rms(c)
DAV:   1    -0.113932141476E+03   -0.20548E-01   -0.22732E+00    70   0.801E+00    0.366E-01
RMM:   2    -0.113932814881E+03   -0.67341E-03   -0.28940E-02    70   0.906E-01    0.209E-01
RMM:   3    -0.113932971687E+03   -0.15681E-03   -0.54982E-03    73   0.385E-01    0.103E-01
RMM:   4    -0.113933093487E+03   -0.12180E-03   -0.11261E-03    73   0.181E-01    0.362E-02
RMM:   5    -0.113933115096E+03   -0.21610E-04   -0.24023E-04    76   0.828E-02    0.157E-02
RMM:   6    -0.113933121234E+03   -0.61379E-05   -0.61170E-05    61   0.385E-02
   7 F= -.11423032E+03 E0= -.11423032E+03  d E =-.217054E-01
 BRION: g(F)=  0.156E+00 g(S)=  0.000E+00 retain N=  5 mean eig= 3.80
 eig:   6.798  6.798  0.860  2.567  1.979
 bond charge predicted
       N       E                     dE             d eps       ncg     rms          rms(c)
DAV:   1    -0.113971453487E+03   -0.38338E-01   -0.54821E+00    70   0.123E+01    0.524E-01
RMM:   2    -0.113973774294E+03   -0.23208E-02   -0.64347E-02    70   0.135E+00    0.306E-01
RMM:   3    -0.113974134631E+03   -0.36034E-03   -0.13234E-02    73   0.585E-01    0.129E-01
RMM:   4    -0.113974348490E+03   -0.21386E-03   -0.22645E-03    73   0.264E-01    0.510E-02
RMM:   5    -0.113974397767E+03   -0.49277E-04   -0.55376E-04    79   0.124E-01    0.250E-02
RMM:   6    -0.113974420168E+03   -0.22401E-04   -0.11997E-04    69   0.525E-02    0.110E-02
RMM:   7    -0.113974438987E+03   -0.18819E-04   -0.13883E-05    47   0.183E-02    0.449E-03
RMM:   8    -0.113974462702E+03   -0.23715E-04   -0.50286E-06    45   0.108E-02    0.195E-03
RMM:   9    -0.113974495681E+03   -0.32979E-04   -0.32899E-06    45   0.740E-03    0.227E-03
RMM:  10    -0.113974508383E+03   -0.12702E-04   -0.12056E-06    38   0.475E-03    0.670E-04
RMM:  11    -0.113974535912E+03   -0.27529E-04   -0.27843E-06    40   0.519E-03    0.145E-03
RMM:  12    -0.113974542401E+03   -0.64897E-05   -0.64195E-07    27   0.340E-03
   8 F= -.11427216E+03 E0= -.11427216E+03  d E =-.418458E-01
 BRION: g(F)=  0.996E-01 g(S)=  0.000E+00 retain N=  4 mean eig= 4.52
 eig:   7.782  7.782  0.481  2.051
 bond charge predicted
       N       E                     dE             d eps       ncg     rms          rms(c)
DAV:   1    -0.113991035604E+03   -0.16500E-01   -0.23147E+00    70   0.820E+00    0.356E-01
RMM:   2    -0.113992136559E+03   -0.11010E-02   -0.27105E-02    70   0.881E-01    0.206E-01
RMM:   3    -0.113992502169E+03   -0.36561E-03   -0.56922E-03    72   0.384E-01    0.810E-02
RMM:   4    -0.113992623976E+03   -0.12181E-03   -0.10872E-03    75   0.171E-01    0.304E-02
RMM:   5    -0.113992637116E+03   -0.13140E-04   -0.21007E-04    73   0.784E-02    0.152E-02
RMM:   6    -0.113992642432E+03   -0.53164E-05   -0.47476E-05    57   0.339E-02
   9 F= -.11429045E+03 E0= -.11429045E+03  d E =-.182839E-01
 BRION: g(F)=  0.689E-01 g(S)=  0.000E+00 retain N=  3 mean eig= 4.34
 eig:   5.625  5.625  1.774
 bond charge predicted
       N       E                     dE             d eps       ncg     rms          rms(c)
DAV:   1    -0.114010213727E+03   -0.17577E-01   -0.14809E+00    70   0.639E+00    0.263E-01
RMM:   2    -0.114010841703E+03   -0.62798E-03   -0.16862E-02    70   0.689E-01    0.156E-01
RMM:   3    -0.114010968903E+03   -0.12720E-03   -0.33495E-03    72   0.303E-01    0.586E-02
RMM:   4    -0.114011047813E+03   -0.78910E-04   -0.68930E-04    76   0.136E-01    0.247E-02
RMM:   5    -0.114011061917E+03   -0.14104E-04   -0.13166E-04    70   0.620E-02    0.103E-02
RMM:   6    -0.114011071438E+03   -0.95210E-05   -0.27533E-05    51   0.265E-02
  10 F= -.11430896E+03 E0= -.11430896E+03  d E =-.185141E-01
 BRION: g(F)=  0.594E-01 g(S)=  0.000E+00 retain N=  4 mean eig= 4.33
 eig:   6.498  6.498  2.162  2.162
 bond charge predicted
       N       E                     dE             d eps       ncg     rms          rms(c)
DAV:   1    -0.114017637229E+03   -0.65753E-02   -0.18283E-01    76   0.228E+00    0.930E-02
RMM:   2    -0.114017713532E+03   -0.76303E-04   -0.22761E-03    70   0.255E-01    0.563E-02
RMM:   3    -0.114017730920E+03   -0.17388E-04   -0.44174E-04    73   0.111E-01    0.240E-02
RMM:   4    -0.114017744572E+03   -0.13652E-04   -0.82931E-05    65   0.509E-02    0.899E-03
RMM:   5    -0.114017751306E+03   -0.67342E-05   -0.18128E-05    47   0.235E-02
  11 F= -.11431568E+03 E0= -.11431568E+03  d E =-.671577E-02
 BRION: g(F)=  0.467E-01 g(S)=  0.000E+00 retain N=  2 mean eig= 2.39
 eig:   2.390  2.390
 bond charge predicted
       N       E                     dE             d eps       ncg     rms          rms(c)
DAV:   1    -0.114033791022E+03   -0.16046E-01   -0.83703E-01    70   0.468E+00    0.173E-01
RMM:   2    -0.114034209961E+03   -0.41894E-03   -0.94035E-03    70   0.508E-01    0.108E-01
RMM:   3    -0.114034245290E+03   -0.35329E-04   -0.17460E-03    71   0.226E-01    0.299E-02
RMM:   4    -0.114034284482E+03   -0.39193E-04   -0.34496E-04    75   0.997E-02    0.156E-02
RMM:   5    -0.114034293982E+03   -0.94996E-05   -0.71168E-05    64   0.466E-02
  12 F= -.11433222E+03 E0= -.11433222E+03  d E =-.165465E-01
 BRION: g(F)=  0.403E-01 g(S)=  0.000E+00 retain N=  2 mean eig= 2.54
 eig:   1.927  3.149
 bond charge predicted
       N       E                     dE             d eps       ncg     rms          rms(c)
DAV:   1    -0.114045484886E+03   -0.11200E-01   -0.45916E-01    70   0.362E+00    0.134E-01
RMM:   2    -0.114045799976E+03   -0.31509E-03   -0.59588E-03    70   0.411E-01    0.812E-02
RMM:   3    -0.114045852927E+03   -0.52951E-04   -0.93344E-04    70   0.176E-01    0.332E-02
RMM:   4    -0.114045886533E+03   -0.33606E-04   -0.23288E-04    74   0.826E-02    0.132E-02
RMM:   5    -0.114045894259E+03   -0.77256E-05   -0.37700E-05    53   0.367E-02
  13 F= -.11434377E+03 E0= -.11434377E+03  d E =-.115431E-01
 BRION: g(F)=  0.378E-01 g(S)=  0.000E+00 retain N=  3 mean eig= 4.45
 eig:   1.160  6.100  6.100
 bond charge predicted
       N       E                     dE             d eps       ncg     rms          rms(c)
DAV:   1    -0.114056103025E+03   -0.10216E-01   -0.56319E-01    70   0.410E+00    0.161E-01
RMM:   2    -0.114056526056E+03   -0.42303E-03   -0.79609E-03    70   0.476E-01    0.943E-02
RMM:   3    -0.114056637104E+03   -0.11105E-03   -0.13482E-03    72   0.202E-01    0.439E-02
RMM:   4    -0.114056676891E+03   -0.39787E-04   -0.25412E-04    73   0.910E-02    0.157E-02
RMM:   5    -0.114056685391E+03   -0.84999E-05   -0.47474E-05    56   0.411E-02
  14 F= -.11435449E+03 E0= -.11435449E+03  d E =-.107219E-01
 BRION: g(F)=  0.363E-01 g(S)=  0.000E+00 retain N=  3 mean eig= 5.07
 eig:   6.749  6.749  1.711
 bond charge predicted
       N       E                     dE             d eps       ncg     rms          rms(c)
DAV:   1    -0.114071763290E+03   -0.15086E-01   -0.16265E+00    70   0.699E+00    0.283E-01
RMM:   2    -0.114073064792E+03   -0.13015E-02   -0.23268E-02    70   0.812E-01    0.162E-01
RMM:   3    -0.114073354079E+03   -0.28929E-03   -0.37941E-03    71   0.344E-01    0.798E-02
RMM:   4    -0.114073464188E+03   -0.11011E-03   -0.83303E-04    73   0.159E-01    0.278E-02
RMM:   5    -0.114073487045E+03   -0.22857E-04   -0.16858E-04    73   0.725E-02    0.122E-02
RMM:   6    -0.114073494856E+03   -0.78111E-05   -0.32781E-05    52   0.316E-02
  15 F= -.11437111E+03 E0= -.11437111E+03  d E =-.166166E-01
 BRION: g(F)=  0.339E-01 g(S)=  0.000E+00 retain N=  3 mean eig= 4.91
 eig:   6.592  6.592  1.550
 bond charge predicted
       N       E                     dE             d eps       ncg     rms          rms(c)
DAV:   1    -0.114081610226E+03   -0.81232E-02   -0.46894E-01    70   0.375E+00    0.149E-01
RMM:   2    -0.114081982533E+03   -0.37231E-03   -0.66859E-03    70   0.435E-01    0.861E-02
RMM:   3    -0.114082084926E+03   -0.10239E-03   -0.11244E-03    72   0.184E-01    0.408E-02
RMM:   4    -0.114082116879E+03   -0.31954E-04   -0.20339E-04    71   0.822E-02    0.142E-02
RMM:   5    -0.114082124691E+03   -0.78117E-05   -0.43284E-05    54   0.378E-02
  16 F= -.11437964E+03 E0= -.11437964E+03  d E =-.853619E-02
 BRION: g(F)=  0.319E-01 g(S)=  0.000E+00 retain N=  3 mean eig= 2.95
 eig:   3.887  3.887  1.085
 bond charge predicted
       N       E                     dE             d eps       ncg     rms          rms(c)
DAV:   1    -0.114092736416E+03   -0.10620E-01   -0.12552E+00    70   0.618E+00    0.255E-01
RMM:   2    -0.114093788154E+03   -0.10517E-02   -0.18182E-02    70   0.716E-01    0.144E-01
RMM:   3    -0.114094079164E+03   -0.29101E-03   -0.31388E-03    72   0.304E-01    0.693E-02
RMM:   4    -0.114094163880E+03   -0.84716E-04   -0.57472E-04    73   0.136E-01    0.233E-02
RMM:   5    -0.114094179737E+03   -0.15857E-04   -0.11718E-04    70   0.618E-02    0.104E-02
RMM:   6    -0.114094185780E+03   -0.60434E-05   -0.22649E-05    49   0.272E-02
  17 F= -.11439151E+03 E0= -.11439151E+03  d E =-.118695E-01
 BRION: g(F)=  0.299E-01 g(S)=  0.000E+00 retain N=  3 mean eig= 5.22
 eig:   7.155  7.155  1.343
 bond charge predicted
       N       E                     dE             d eps       ncg     rms          rms(c)
DAV:   1    -0.114106047995E+03   -0.11868E-01   -0.22523E+00    70   0.829E+00    0.348E-01
RMM:   2    -0.114107983670E+03   -0.19357E-02   -0.32761E-02    70   0.958E-01    0.195E-01
RMM:   3    -0.114108481282E+03   -0.49761E-03   -0.56760E-03    72   0.405E-01    0.951E-02
RMM:   4    -0.114108627242E+03   -0.14596E-03   -0.10050E-03    72   0.181E-01    0.313E-02
RMM:   5    -0.114108657430E+03   -0.30188E-04   -0.23097E-04    78   0.830E-02    0.142E-02
RMM:   6    -0.114108666395E+03   -0.89652E-05   -0.38919E-05    54   0.354E-02
  18 F= -.11440570E+03 E0= -.11440570E+03  d E =-.141889E-01
 BRION: g(F)=  0.285E-01 g(S)=  0.000E+00 retain N=  2 mean eig= 7.18
 eig:   7.181  7.181
 bond charge predicted
       N       E                     dE             d eps       ncg     rms          rms(c)
DAV:   1    -0.114118875076E+03   -0.10218E-01   -0.20873E+00    70   0.798E+00    0.336E-01
RMM:   2    -0.114120670681E+03   -0.17956E-02   -0.30537E-02    70   0.922E-01    0.189E-01
RMM:   3    -0.114121148038E+03   -0.47736E-03   -0.53361E-03    72   0.391E-01    0.909E-02
RMM:   4    -0.114121287192E+03   -0.13915E-03   -0.93832E-04    72   0.174E-01    0.306E-02
RMM:   5    -0.114121316861E+03   -0.29669E-04   -0.21535E-04    78   0.801E-02    0.135E-02
RMM:   6    -0.114121326186E+03   -0.93244E-05   -0.36930E-05    55   0.342E-02
  19 F= -.11441807E+03 E0= -.11441807E+03  d E =-.123727E-01
 BRION: g(F)=  0.273E-01 g(S)=  0.000E+00 retain N=  2 mean eig= 6.70
 eig:   6.699  6.699
 bond charge predicted
       N       E                     dE             d eps       ncg     rms          rms(c)
DAV:   1    -0.114133366571E+03   -0.12050E-01   -0.42333E+00    70   0.114E+01    0.482E-01
RMM:   2    -0.114137108709E+03   -0.37421E-02   -0.61931E-02    70   0.132E+00    0.269E-01
RMM:   3    -0.114137958506E+03   -0.84980E-03   -0.10761E-02    72   0.556E-01    0.133E-01
RMM:   4    -0.114138222469E+03   -0.26396E-03   -0.19129E-03    72   0.248E-01    0.434E-02
RMM:   5    -0.114138279455E+03   -0.56986E-04   -0.42655E-04    77   0.114E-01    0.199E-02
RMM:   6    -0.114138296977E+03   -0.17522E-04   -0.79665E-05    60   0.496E-02    0.863E-03
RMM:   7    -0.114138310580E+03   -0.13603E-04   -0.18828E-05    48   0.241E-02    0.337E-03
RMM:   8    -0.114138322442E+03   -0.11862E-04   -0.54359E-06    45   0.122E-02    0.120E-03
RMM:   9    -0.114138329937E+03   -0.74954E-05   -0.20089E-06    45   0.712E-03
  20 F= -.11443459E+03 E0= -.11443459E+03  d E =-.165200E-01
 BRION: g(F)=  0.257E-01 g(S)=  0.000E+00 retain N=  2 mean eig= 5.34
 eig:   5.342  5.342
 bond charge predicted
       N       E                     dE             d eps       ncg     rms          rms(c)
DAV:   1    -0.114144496016E+03   -0.61736E-02   -0.88118E-01    70   0.518E+00    0.220E-01
RMM:   2    -0.114145224171E+03   -0.72816E-03   -0.12912E-02    70   0.598E-01    0.123E-01
RMM:   3    -0.114145468038E+03   -0.24387E-03   -0.22763E-03    72   0.253E-01    0.593E-02
RMM:   4    -0.114145531869E+03   -0.63830E-04   -0.40024E-04    72   0.113E-01    0.199E-02
RMM:   5    -0.114145543874E+03   -0.12006E-04   -0.87708E-05    68   0.519E-02    0.890E-03
RMM:   6    -0.114145548199E+03   -0.43245E-05   -0.16111E-05    48   0.231E-02
  21 F= -.11444158E+03 E0= -.11444158E+03  d E =-.698756E-02
 BRION: g(F)=  0.248E-01 g(S)=  0.000E+00 retain N=  3 mean eig= 5.65
 eig:   7.739  7.739  1.471
 bond charge predicted
       N       E                     dE             d eps       ncg     rms          rms(c)
DAV:   1    -0.114156017033E+03   -0.10473E-01   -0.49550E+00    70   0.123E+01    0.519E-01
RMM:   2    -0.114160471933E+03   -0.44549E-02   -0.72340E-02    70   0.142E+00    0.290E-01
RMM:   3    -0.114161446605E+03   -0.97467E-03   -0.12566E-02    72   0.600E-01    0.141E-01
RMM:   4    -0.114161755778E+03   -0.30917E-03   -0.22213E-03    72   0.267E-01    0.459E-02
RMM:   5    -0.114161817036E+03   -0.61258E-04   -0.49945E-04    78   0.122E-01    0.214E-02
RMM:   6    -0.114161833237E+03   -0.16201E-04   -0.85720E-05    60   0.522E-02    0.908E-03
RMM:   7    -0.114161845669E+03   -0.12433E-04   -0.21221E-05    48   0.258E-02    0.377E-03
RMM:   8    -0.114161856803E+03   -0.11134E-04   -0.59381E-06    45   0.127E-02    0.131E-03
RMM:   9    -0.114161864109E+03   -0.73052E-05   -0.21677E-06    45   0.748E-03
  22 F= -.11445731E+03 E0= -.11445731E+03  d E =-.157318E-01
 BRION: g(F)=  0.230E-01 g(S)=  0.000E+00 retain N=  2 mean eig= 5.50
 eig:   3.048  7.961
 bond charge predicted
       N       E                     dE             d eps       ncg     rms          rms(c)
DAV:   1    -0.114171374593E+03   -0.95178E-02   -0.49088E+00    70   0.122E+01    0.517E-01
RMM:   2    -0.114175795661E+03   -0.44211E-02   -0.71799E-02    70   0.141E+00    0.289E-01
RMM:   3    -0.114176776495E+03   -0.98083E-03   -0.12496E-02    72   0.597E-01    0.141E-01
RMM:   4    -0.114177079699E+03   -0.30320E-03   -0.22099E-03    72   0.267E-01    0.456E-02
RMM:   5    -0.114177139423E+03   -0.59724E-04   -0.49214E-04    78   0.122E-01    0.215E-02
RMM:   6    -0.114177155012E+03   -0.15588E-04   -0.84903E-05    60   0.520E-02    0.920E-03
RMM:   7    -0.114177167199E+03   -0.12187E-04   -0.20990E-05    48   0.255E-02    0.378E-03
RMM:   8    -0.114177178178E+03   -0.10980E-04   -0.59404E-06    45   0.128E-02    0.129E-03
RMM:   9    -0.114177185137E+03   -0.69586E-05   -0.21404E-06    45   0.745E-03
  23 F= -.11447198E+03 E0= -.11447198E+03  d E =-.146708E-01
 BRION: g(F)=  0.216E-01 g(S)=  0.000E+00
 BRIONS problems: POTIM should be increased
 retain N=  1 mean eig=14.40
 eig:  14.396
 bond charge predicted
       N       E                     dE             d eps       ncg     rms          rms(c)
DAV:   1    -0.114184481780E+03   -0.73036E-02   -0.18912E+00    70   0.755E+00    0.317E-01
RMM:   2    -0.114186110621E+03   -0.16288E-02   -0.27687E-02    70   0.877E-01    0.179E-01
RMM:   3    -0.114186552344E+03   -0.44172E-03   -0.48141E-03    72   0.371E-01    0.850E-02
RMM:   4    -0.114186677073E+03   -0.12473E-03   -0.84882E-04    72   0.165E-01    0.285E-02
RMM:   5    -0.114186701113E+03   -0.24040E-04   -0.19020E-04    77   0.757E-02    0.128E-02
RMM:   6    -0.114186707617E+03   -0.65041E-05   -0.31646E-05    51   0.321E-02
  24 F= -.11448108E+03 E0= -.11448108E+03  d E =-.909172E-02
 BRION: g(F)=  0.209E-01 g(S)=  0.000E+00 retain N=  1 mean eig= 2.46
 eig:   2.457
 bond charge predicted
       N       E                     dE             d eps       ncg     rms          rms(c)
DAV:   1    -0.114185928038E+03    0.77308E-03   -0.41613E-02    76   0.113E+00    0.535E-02
RMM:   2    -0.114185953435E+03   -0.25397E-04   -0.64429E-04    70   0.133E-01    0.294E-02
RMM:   3    -0.114185967308E+03   -0.13873E-04   -0.11305E-04    68   0.554E-02    0.163E-02
RMM:   4    -0.114185975244E+03   -0.79360E-05   -0.21330E-05    48   0.260E-02
  25 F= -.11448038E+03 E0= -.11448038E+03  d E =0.695981E-03
 BRION: g(F)=  0.204E-01 g(S)=  0.000E+00 retain N=  1 mean eig= 0.55
 eig:   0.546
 bond charge predicted
       N       E                     dE             d eps       ncg     rms          rms(c)
DAV:   1    -0.114188538956E+03   -0.25716E-02   -0.11784E-01    70   0.188E+00    0.796E-02
RMM:   2    -0.114188633358E+03   -0.94402E-04   -0.17277E-03    70   0.220E-01    0.443E-02
RMM:   3    -0.114188665482E+03   -0.32124E-04   -0.29802E-04    72   0.932E-02    0.208E-02
RMM:   4    -0.114188674582E+03   -0.90998E-05   -0.52661E-05    64   0.418E-02
  26 F= -.11448296E+03 E0= -.11448296E+03  d E =-.258080E-02
 BRION: g(F)=  0.194E-01 g(S)=  0.000E+00 retain N=  2 mean eig= 1.14
 eig:   0.124  2.156
 bond charge predicted
       N       E                     dE             d eps       ncg     rms          rms(c)
DAV:   1    -0.114203041995E+03   -0.14377E-01   -0.73575E+00    70   0.148E+01    0.607E-01
RMM:   2    -0.114209851157E+03   -0.68092E-02   -0.10778E-01    70   0.174E+00    0.349E-01
RMM:   3    -0.114211050372E+03   -0.11992E-02   -0.18173E-02    72   0.737E-01    0.161E-01
RMM:   4    -0.114211439558E+03   -0.38919E-03   -0.32475E-03    72   0.328E-01    0.523E-02
RMM:   5    -0.114211523894E+03   -0.84336E-04   -0.71964E-04    78   0.148E-01    0.240E-02
RMM:   6    -0.114211543143E+03   -0.19249E-04   -0.12399E-04    67   0.623E-02    0.100E-02
RMM:   7    -0.114211557330E+03   -0.14187E-04   -0.32040E-05    50   0.302E-02    0.524E-03
RMM:   8    -0.114211570600E+03   -0.13270E-04   -0.69045E-06    45   0.137E-02    0.130E-03
RMM:   9    -0.114211577046E+03   -0.64461E-05   -0.23873E-06    44   0.800E-03
  27 F= -.11450477E+03 E0= -.11450477E+03  d E =-.218129E-01
 BRION: g(F)=  0.177E-01 g(S)=  0.000E+00 retain N=  2 mean eig= 4.38
 eig:   3.112  5.654
 bond charge predicted
       N       E                     dE             d eps       ncg     rms          rms(c)
DAV:   1    -0.114207901481E+03    0.36691E-02   -0.20777E-01    70   0.250E+00    0.105E-01
RMM:   2    -0.114208064123E+03   -0.16264E-03   -0.31673E-03    70   0.296E-01    0.598E-02
RMM:   3    -0.114208122051E+03   -0.57927E-04   -0.54270E-04    72   0.125E-01    0.315E-02
RMM:   4    -0.114208144407E+03   -0.22356E-04   -0.99221E-05    70   0.568E-02    0.114E-02
RMM:   5    -0.114208149551E+03   -0.51440E-05   -0.19911E-05    50   0.257E-02
  28 F= -.11450151E+03 E0= -.11450151E+03  d E =0.325836E-02
 BRION: g(F)=  0.182E-01 g(S)=  0.000E+00 retain N=  1 mean eig= 0.56
 eig:   0.558
 bond charge predicted
       N       E                     dE             d eps       ncg     rms          rms(c)
DAV:   1    -0.114211815184E+03   -0.36708E-02   -0.18757E-01    70   0.236E+00    0.969E-02
RMM:   2    -0.114211957774E+03   -0.14259E-03   -0.27147E-03    70   0.277E-01    0.558E-02
RMM:   3    -0.114212001781E+03   -0.44007E-04   -0.44980E-04    72   0.117E-01    0.255E-02
RMM:   4    -0.114212015633E+03   -0.13853E-04   -0.81730E-05    70   0.517E-02    0.923E-03
RMM:   5    -0.114212017214E+03   -0.15803E-05   -0.13453E-05    47   0.217E-02
  29 F= -.11450520E+03 E0= -.11450520E+03  d E =-.368638E-02
 BRION: g(F)=  0.151E-01 g(S)=  0.000E+00 retain N=  2 mean eig= 1.34
 eig:   0.743  1.927
 bond charge predicted
       N       E                     dE             d eps       ncg     rms          rms(c)
DAV:   1    -0.114214561381E+03   -0.25457E-02   -0.74183E-02    76   0.148E+00    0.598E-02
RMM:   2    -0.114214615121E+03   -0.53740E-04   -0.10734E-03    70   0.176E-01    0.352E-02
RMM:   3    -0.114214630450E+03   -0.15329E-04   -0.17684E-04    71   0.754E-02    0.154E-02
RMM:   4    -0.114214635708E+03   -0.52582E-05   -0.36928E-05    55   0.347E-02
  30 F= -.11450769E+03 E0= -.11450769E+03  d E =-.248715E-02
 BRION: g(F)=  0.150E-01 g(S)=  0.000E+00 retain N=  2 mean eig= 0.95
 eig:   0.952  0.952
 bond charge predicted
       N       E                     dE             d eps       ncg     rms          rms(c)
DAV:   1    -0.114217536953E+03   -0.29065E-02   -0.99799E-02    70   0.171E+00    0.680E-02
RMM:   2    -0.114217612604E+03   -0.75651E-04   -0.14399E-03    70   0.203E-01    0.409E-02
RMM:   3    -0.114217635281E+03   -0.22676E-04   -0.23487E-04    71   0.866E-02    0.174E-02
RMM:   4    -0.114217642506E+03   -0.72252E-05   -0.48321E-05    58   0.388E-02
  31 F= -.11451055E+03 E0= -.11451055E+03  d E =-.286217E-02
 BRION: g(F)=  0.145E-01 g(S)=  0.000E+00 retain N=  3 mean eig= 4.14
 eig:   5.747  5.747  0.924
 bond charge predicted
       N       E                     dE             d eps       ncg     rms          rms(c)
DAV:   1    -0.114228646180E+03   -0.11011E-01   -0.36752E+01    70   0.328E+01    0.141E+00
RMM:   2    -0.114264256135E+03   -0.35610E-01   -0.54435E-01    70   0.395E+00    0.776E-01
RMM:   3    -0.114267529595E+03   -0.32735E-02   -0.83246E-02    71   0.164E+00    0.403E-01
RMM:   4    -0.114268888352E+03   -0.13588E-02   -0.18776E-02    72   0.766E-01    0.127E-01
RMM:   5    -0.114269268856E+03   -0.38050E-03   -0.32040E-03    73   0.315E-01    0.589E-02
RMM:   6    -0.114269376768E+03   -0.10791E-03   -0.78957E-04    79   0.151E-01    0.158E-02
RMM:   7    -0.114269432585E+03   -0.55818E-04   -0.20690E-04    74   0.694E-02    0.178E-02
RMM:   8    -0.114269472135E+03   -0.39550E-04   -0.21845E-05    47   0.232E-02    0.452E-03
RMM:   9    -0.114269494068E+03   -0.21933E-04   -0.52000E-06    45   0.108E-02    0.190E-03
RMM:  10    -0.114269518505E+03   -0.24437E-04   -0.25394E-06    45   0.719E-03    0.865E-04
RMM:  11    -0.114269543715E+03   -0.25211E-04   -0.19552E-06    42   0.524E-03    0.166E-03
RMM:  12    -0.114269557042E+03   -0.13327E-04   -0.66895E-07    29   0.377E-03    0.365E-04
RMM:  13    -0.114269569002E+03   -0.11960E-04   -0.10918E-06    31   0.401E-03    0.743E-04
RMM:  14    -0.114269574216E+03   -0.52142E-05   -0.30845E-07    26   0.335E-03
  32 F= -.11455933E+03 E0= -.11455933E+03  d E =-.487762E-01
 BRION: g(F)=  0.117E-01 g(S)=  0.000E+00
 BRIONS problems: POTIM should be increased
 retain N=  1 mean eig=26.55
 eig:  26.547
 bond charge predicted
       N       E                     dE             d eps       ncg     rms          rms(c)
DAV:   1    -0.114257943529E+03    0.11625E-01   -0.17480E+00    70   0.717E+00    0.295E-01
RMM:   2    -0.114259409813E+03   -0.14663E-02   -0.25118E-02    70   0.845E-01    0.169E-01
RMM:   3    -0.114259705634E+03   -0.29582E-03   -0.40765E-03    71   0.358E-01    0.763E-02
RMM:   4    -0.114259829504E+03   -0.12387E-03   -0.87562E-04    74   0.162E-01    0.272E-02
RMM:   5    -0.114259844443E+03   -0.14939E-04   -0.13067E-04    69   0.658E-02    0.111E-02
RMM:   6    -0.114259849481E+03   -0.50379E-05   -0.32688E-05    53   0.317E-02
  33 F= -.11455032E+03 E0= -.11455032E+03  d E =0.900456E-02
 BRION: g(F)=  0.117E-01 g(S)=  0.000E+00 retain N=  1 mean eig= 2.85
 eig:   2.853
 bond charge predicted
       N       E                     dE             d eps       ncg     rms          rms(c)
DAV:   1    -0.114265539209E+03   -0.56948E-02   -0.55356E-01    70   0.401E+00    0.159E-01
RMM:   2    -0.114265940187E+03   -0.40098E-03   -0.75387E-03    70   0.465E-01    0.948E-02
RMM:   3    -0.114266039990E+03   -0.99803E-04   -0.12136E-03    71   0.198E-01    0.364E-02
RMM:   4    -0.114266076057E+03   -0.36067E-04   -0.24341E-04    72   0.884E-02    0.137E-02
RMM:   5    -0.114266081024E+03   -0.49668E-05   -0.43838E-05    53   0.394E-02
  34 F= -.11455613E+03 E0= -.11455613E+03  d E =-.581006E-02
 BRION: g(F)=  0.104E-01 g(S)=  0.000E+00 retain N=  1 mean eig= 2.10
 eig:   2.097
 bond charge predicted
       N       E                     dE             d eps       ncg     rms          rms(c)
DAV:   1    -0.114267156489E+03   -0.10804E-02   -0.14250E-02    76   0.621E-01    0.263E-02
RMM:   2    -0.114267162494E+03   -0.60058E-05   -0.16456E-04    70   0.696E-02    0.160E-02
RMM:   3    -0.114267164036E+03   -0.15414E-05   -0.35077E-05    56   0.320E-02
  35 F= -.11455716E+03 E0= -.11455716E+03  d E =-.103224E-02
 BRION: g(F)=  0.103E-01 g(S)=  0.000E+00 retain N=  2 mean eig= 1.54
 eig:   2.573  0.502
 bond charge predicted
       N       E                     dE             d eps       ncg     rms          rms(c)
DAV:   1    -0.114275603599E+03   -0.84411E-02   -0.98042E-01    70   0.524E+00    0.203E-01
RMM:   2    -0.114276196102E+03   -0.59250E-03   -0.12167E-02    70   0.593E-01    0.127E-01
RMM:   3    -0.114276274228E+03   -0.78126E-04   -0.20616E-03    70   0.260E-01    0.343E-02
RMM:   4    -0.114276322985E+03   -0.48756E-04   -0.41507E-04    74   0.115E-01    0.162E-02
RMM:   5    -0.114276329244E+03   -0.62588E-05   -0.81958E-05    67   0.521E-02
  36 F= -.11456575E+03 E0= -.11456575E+03  d E =-.858253E-02
 BRION: g(F)=  0.101E-01 g(S)=  0.000E+00 retain N=  2 mean eig= 3.09
 eig:   0.959  5.225
 bond charge predicted
       N       E                     dE             d eps       ncg     rms          rms(c)
DAV:   1    -0.114275640642E+03    0.68234E-03   -0.17545E-02    76   0.721E-01    0.304E-02
RMM:   2    -0.114275655951E+03   -0.15309E-04   -0.25137E-04    70   0.827E-02    0.170E-02
RMM:   3    -0.114275664188E+03   -0.82366E-05   -0.44734E-05    53   0.345E-02
  37 F= -.11456514E+03 E0= -.11456514E+03  d E =0.603411E-03
 BRION: g(F)=  0.102E-01 g(S)=  0.000E+00 retain N=  1 mean eig= 0.56
 eig:   0.558
 bond charge predicted
       N       E                     dE             d eps       ncg     rms          rms(c)
DAV:   1    -0.114277126471E+03   -0.14705E-02   -0.26411E-02    76   0.859E-01    0.329E-02
RMM:   2    -0.114277142458E+03   -0.15987E-04   -0.32153E-04    70   0.960E-02    0.202E-02
RMM:   3    -0.114277145274E+03   -0.28162E-05   -0.53669E-05    64   0.417E-02
  38 F= -.11456653E+03 E0= -.11456653E+03  d E =-.138530E-02
 BRION: g(F)=  0.972E-02 g(S)=  0.000E+00 retain N=  2 mean eig= 0.26
 eig:   0.507  0.014
 bond charge predicted
       N       E                     dE             d eps       ncg     rms          rms(c)
DAV:   1    -0.114278146816E+03   -0.10044E-02   -0.11907E-02    76   0.570E-01    0.232E-02
RMM:   2    -0.114278154437E+03   -0.76212E-05   -0.14842E-04    68   0.658E-02    0.149E-02
RMM:   3    -0.114278156778E+03   -0.23412E-05   -0.28296E-05    51   0.298E-02
  39 F= -.11456748E+03 E0= -.11456748E+03  d E =-.950541E-03
 BRION: g(F)=  0.964E-02 g(S)=  0.000E+00 retain N=  2 mean eig= 0.62
 eig:   0.619  0.619
 bond charge predicted
       N       E                     dE             d eps       ncg     rms          rms(c)
DAV:   1    -0.114280298473E+03   -0.21440E-02   -0.56530E-02    70   0.124E+00    0.488E-02
RMM:   2    -0.114280329938E+03   -0.31465E-04   -0.67807E-04    70   0.140E-01    0.310E-02
RMM:   3    -0.114280334840E+03   -0.49016E-05   -0.12646E-04    70   0.631E-02    0.631E-03
RMM:   4    -0.114280337574E+03   -0.27345E-05   -0.22873E-05    48   0.276E-02
  40 F= -.11456952E+03 E0= -.11456952E+03  d E =-.204476E-02
 BRION: g(F)=  0.957E-02 g(S)=  0.000E+00 retain N=  2 mean eig= 1.26
 eig:   1.263  1.263
 bond charge predicted
       N       E                     dE             d eps       ncg     rms          rms(c)
DAV:   1    -0.114282947853E+03   -0.26130E-02   -0.86635E-02    70   0.153E+00    0.605E-02
RMM:   2    -0.114282991666E+03   -0.43813E-04   -0.10199E-03    70   0.171E-01    0.382E-02
RMM:   3    -0.114282996796E+03   -0.51296E-05   -0.19383E-04    70   0.772E-02    0.758E-03
RMM:   4    -0.114283000718E+03   -0.39218E-05   -0.34809E-05    51   0.332E-02
  41 F= -.11457202E+03 E0= -.11457202E+03  d E =-.249702E-02
 BRION: g(F)=  0.955E-02 g(S)=  0.000E+00 retain N=  3 mean eig= 2.82
 eig:   3.841  3.841  0.769
 bond charge predicted
       N       E                     dE             d eps       ncg     rms          rms(c)
DAV:   1    -0.114300050140E+03   -0.17053E-01   -0.60638E+00    70   0.129E+01    0.513E-01
RMM:   2    -0.114303563948E+03   -0.35138E-02   -0.71455E-02    70   0.143E+00    0.315E-01
RMM:   3    -0.114303608186E+03   -0.44238E-04   -0.12295E-02    70   0.627E-01    0.897E-02
RMM:   4    -0.114303898985E+03   -0.29080E-03   -0.25567E-03    75   0.280E-01    0.426E-02
RMM:   5    -0.114303935648E+03   -0.36663E-04   -0.53056E-04    78   0.127E-01    0.162E-02
RMM:   6    -0.114303947638E+03   -0.11990E-04   -0.81913E-05    61   0.477E-02    0.849E-03
RMM:   7    -0.114303962358E+03   -0.14720E-04   -0.18195E-05    48   0.219E-02    0.390E-03
RMM:   8    -0.114303973158E+03   -0.10799E-04   -0.43250E-06    45   0.103E-02    0.147E-03
RMM:   9    -0.114303981097E+03   -0.79393E-05   -0.15370E-06    41   0.632E-03
  42 F= -.11459151E+03 E0= -.11459151E+03  d E =-.194876E-01
 BRION: g(F)=  0.861E-02 g(S)=  0.000E+00
 BRIONS problems: POTIM should be increased
 retain N=  1 mean eig=14.05
 eig:  14.053
 bond charge predicted
       N       E                     dE             d eps       ncg     rms          rms(c)
DAV:   1    -0.114306140238E+03   -0.21671E-02   -0.75309E-02    76   0.144E+00    0.552E-02
RMM:   2    -0.114306184655E+03   -0.44417E-04   -0.90715E-04    70   0.161E-01    0.347E-02
RMM:   3    -0.114306194475E+03   -0.98202E-05   -0.15947E-04    70   0.715E-02    0.785E-03
RMM:   4    -0.114306199823E+03   -0.53478E-05   -0.28750E-05    50   0.310E-02
  43 F= -.11459355E+03 E0= -.11459355E+03  d E =-.204153E-02
 BRION: g(F)=  0.852E-02 g(S)=  0.000E+00 retain N=  1 mean eig= 0.99
 eig:   0.989
 bond charge predicted
       N       E                     dE             d eps       ncg     rms          rms(c)
DAV:   1    -0.114306246197E+03   -0.51722E-04   -0.34131E-04    92   0.101E-01    0.432E-03
RMM:   2    -0.114306247604E+03   -0.14074E-05   -0.67515E-06    43   0.138E-02
  44 F= -.11459359E+03 E0= -.11459359E+03  d E =-.413039E-04
 BRION: g(F)=  0.840E-02 g(S)=  0.000E+00 retain N=  1 mean eig= 0.48
 eig:   0.477
 bond charge predicted
       N       E                     dE             d eps       ncg     rms          rms(c)
DAV:   1    -0.114307096046E+03   -0.84985E-03   -0.11922E-02    76   0.577E-01    0.224E-02
RMM:   2    -0.114307103742E+03   -0.76962E-05   -0.15190E-04    68   0.661E-02    0.142E-02
RMM:   3    -0.114307106239E+03   -0.24962E-05   -0.26419E-05    50   0.294E-02
  45 F= -.11459438E+03 E0= -.11459438E+03  d E =-.786917E-03
 BRION: g(F)=  0.824E-02 g(S)=  0.000E+00 retain N=  1 mean eig= 3.12
 eig:   3.117
 bond charge predicted
       N       E                     dE             d eps       ncg     rms          rms(c)
DAV:   1    -0.114310066908E+03   -0.29632E-02   -0.16043E-01    70   0.212E+00    0.805E-02
RMM:   2    -0.114310170950E+03   -0.10404E-03   -0.20361E-03    70   0.242E-01    0.510E-02
RMM:   3    -0.114310187304E+03   -0.16354E-04   -0.33909E-04    70   0.106E-01    0.131E-02
RMM:   4    -0.114310195807E+03   -0.85033E-05   -0.68908E-05    66   0.467E-02
  46 F= -.11459720E+03 E0= -.11459720E+03  d E =-.282384E-02
 BRION: g(F)=  0.824E-02 g(S)=  0.000E+00 retain N=  2 mean eig= 7.55
 eig:   7.548  7.548
 bond charge predicted
       N       E                     dE             d eps       ncg     rms          rms(c)
DAV:   1    -0.114325006294E+03   -0.14819E-01   -0.17142E+01    70   0.218E+01    0.878E-01
RMM:   2    -0.114337901771E+03   -0.12895E-01   -0.22176E-01    70   0.252E+00    0.522E-01
RMM:   3    -0.114338154936E+03   -0.25316E-03   -0.33141E-02    70   0.107E+00    0.206E-01
RMM:   4    -0.114338919892E+03   -0.76496E-03   -0.74819E-03    72   0.495E-01    0.752E-02
RMM:   5    -0.114339058553E+03   -0.13866E-03   -0.15157E-03    75   0.206E-01    0.205E-02
RMM:   6    -0.114339103160E+03   -0.44607E-04   -0.32195E-04    78   0.927E-02    0.108E-02
RMM:   7    -0.114339126528E+03   -0.23368E-04   -0.57361E-05    56   0.362E-02    0.855E-03
RMM:   8    -0.114339154912E+03   -0.28384E-04   -0.84671E-06    46   0.149E-02    0.369E-03
RMM:   9    -0.114339162205E+03   -0.72933E-05   -0.29454E-06    45   0.838E-03
  47 F= -.11462327E+03 E0= -.11462327E+03  d E =-.260652E-01
 BRION: g(F)=  0.702E-02 g(S)=  0.000E+00
 BRIONS problems: POTIM should be increased
 retain N=  1 mean eig=24.90
 eig:  24.901
 bond charge predicted
       N       E                     dE             d eps       ncg     rms          rms(c)
DAV:   1    -0.114333976711E+03    0.51782E-02   -0.54989E-01    70   0.391E+00    0.148E-01
RMM:   2    -0.114334347020E+03   -0.37031E-03   -0.69060E-03    70   0.444E-01    0.932E-02
RMM:   3    -0.114334406763E+03   -0.59742E-04   -0.11195E-03    70   0.193E-01    0.253E-02
RMM:   4    -0.114334440199E+03   -0.33436E-04   -0.22544E-04    75   0.847E-02    0.116E-02
RMM:   5    -0.114334446987E+03   -0.67882E-05   -0.35642E-05    52   0.347E-02
  48 F= -.11461910E+03 E0= -.11461910E+03  d E =0.417125E-02
 BRION: g(F)=  0.710E-02 g(S)=  0.000E+00 retain N=  1 mean eig= 1.44
 eig:   1.444
 bond charge predicted
       N       E                     dE             d eps       ncg     rms          rms(c)
DAV:   1    -0.114337312780E+03   -0.28726E-02   -0.21147E-01    70   0.242E+00    0.914E-02
RMM:   2    -0.114337441169E+03   -0.12839E-03   -0.25676E-03    70   0.270E-01    0.576E-02
RMM:   3    -0.114337460344E+03   -0.19174E-04   -0.42232E-04    70   0.118E-01    0.141E-02
RMM:   4    -0.114337470532E+03   -0.10189E-04   -0.80754E-05    67   0.508E-02    0.666E-03
RMM:   5    -0.114337471693E+03   -0.11608E-05   -0.13136E-05    46   0.211E-02
  49 F= -.11462179E+03 E0= -.11462179E+03  d E =-.269118E-02
 BRION: g(F)=  0.632E-02 g(S)=  0.000E+00 retain N=  1 mean eig= 1.90
 eig:   1.901
 bond charge predicted
       N       E                     dE             d eps       ncg     rms          rms(c)
DAV:   1    -0.114338418346E+03   -0.94781E-03   -0.22077E-02    76   0.780E-01    0.302E-02
RMM:   2    -0.114338430830E+03   -0.12484E-04   -0.27250E-04    70   0.893E-02    0.191E-02
RMM:   3    -0.114338433093E+03   -0.22624E-05   -0.49744E-05    63   0.401E-02
  50 F= -.11462265E+03 E0= -.11462265E+03  d E =-.859426E-03
 BRION: g(F)=  0.631E-02 g(S)=  0.000E+00 retain N=  2 mean eig= 1.60
 eig:   1.596  1.596
 bond charge predicted
       N       E                     dE             d eps       ncg     rms          rms(c)
DAV:   1    -0.114340988459E+03   -0.25576E-02   -0.17561E-01    70   0.220E+00    0.846E-02
RMM:   2    -0.114341096549E+03   -0.10809E-03   -0.21766E-03    70   0.251E-01    0.538E-02
RMM:   3    -0.114341112699E+03   -0.16150E-04   -0.37758E-04    70   0.111E-01    0.124E-02
RMM:   4    -0.114341121531E+03   -0.88323E-05   -0.76426E-05    65   0.488E-02
  51 F= -.11462503E+03 E0= -.11462503E+03  d E =-.238782E-02
 BRION: g(F)=  0.621E-02 g(S)=  0.000E+00 retain N=  2 mean eig= 2.65
 eig:   1.794  3.503
 bond charge predicted
       N       E                     dE             d eps       ncg     rms          rms(c)
DAV:   1    -0.114341978908E+03   -0.86621E-03   -0.20586E-02    76   0.756E-01    0.300E-02
RMM:   2    -0.114341991554E+03   -0.12646E-04   -0.26940E-04    70   0.885E-02    0.191E-02
RMM:   3    -0.114341994387E+03   -0.28331E-05   -0.49305E-05    62   0.399E-02
  52 F= -.11462581E+03 E0= -.11462581E+03  d E =-.779852E-03
 BRION: g(F)=  0.625E-02 g(S)=  0.000E+00 retain N=  2 mean eig= 1.65
 eig:   2.797  0.513
 bond charge predicted
       N       E                     dE             d eps       ncg     rms          rms(c)
DAV:   1    -0.114343403807E+03   -0.14123E-02   -0.53869E-02    70   0.122E+00    0.473E-02
RMM:   2    -0.114343437997E+03   -0.34190E-04   -0.67967E-04    70   0.140E-01    0.303E-02
RMM:   3    -0.114343444607E+03   -0.66096E-05   -0.11947E-04    70   0.626E-02    0.679E-03
RMM:   4    -0.114343447708E+03   -0.31008E-05   -0.23548E-05    48   0.276E-02
  53 F= -.11462710E+03 E0= -.11462710E+03  d E =-.128830E-02
 BRION: g(F)=  0.605E-02 g(S)=  0.000E+00 retain N=  3 mean eig= 5.00
 eig:   6.971  6.971  1.050
 bond charge predicted
       N       E                     dE             d eps       ncg     rms          rms(c)
DAV:   1    -0.114350606906E+03   -0.71623E-02   -0.25658E+01    70   0.266E+01    0.113E+00
RMM:   2    -0.114369739156E+03   -0.19132E-01   -0.33110E-01    70   0.309E+00    0.644E-01
RMM:   3    -0.114369936870E+03   -0.19771E-03   -0.49648E-02    71   0.130E+00    0.290E-01
RMM:   4    -0.114370916850E+03   -0.97998E-03   -0.11924E-02    73   0.607E-01    0.989E-02
RMM:   5    -0.114371106459E+03   -0.18961E-03   -0.20667E-03    74   0.244E-01    0.336E-02
RMM:   6    -0.114371166806E+03   -0.60347E-04   -0.49844E-04    80   0.114E-01    0.138E-02
RMM:   7    -0.114371199961E+03   -0.33155E-04   -0.90047E-05    57   0.448E-02    0.130E-02
RMM:   8    -0.114371243341E+03   -0.43379E-04   -0.13643E-05    46   0.178E-02    0.596E-03
RMM:   9    -0.114371250769E+03   -0.74286E-05   -0.34255E-06    45   0.902E-03
  54 F= -.11465108E+03 E0= -.11465108E+03  d E =-.239728E-01
 BRION: g(F)=  0.706E-02 g(S)=  0.000E+00
 BRIONS problems: POTIM should be increased
 retain N=  1 mean eig=16.83
 eig:  16.829
 bond charge predicted
       N       E                     dE             d eps       ncg     rms          rms(c)
DAV:   1    -0.114346054749E+03    0.25189E-01   -0.10659E+01    70   0.171E+01    0.682E-01
RMM:   2    -0.114353331598E+03   -0.72768E-02   -0.13193E-01    70   0.195E+00    0.414E-01
RMM:   3    -0.114353506865E+03   -0.17527E-03   -0.21155E-02    70   0.840E-01    0.138E-01
RMM:   4    -0.114354039720E+03   -0.53286E-03   -0.47488E-03    74   0.381E-01    0.567E-02
RMM:   5    -0.114354098740E+03   -0.59020E-04   -0.76593E-04    75   0.156E-01    0.154E-02
RMM:   6    -0.114354122061E+03   -0.23321E-04   -0.18739E-04    74   0.701E-02    0.929E-03
RMM:   7    -0.114354138199E+03   -0.16138E-04   -0.32449E-05    51   0.284E-02    0.511E-03
RMM:   8    -0.114354148712E+03   -0.10513E-04   -0.62392E-06    45   0.122E-02    0.189E-03
RMM:   9    -0.114354153912E+03   -0.52003E-05   -0.19262E-06    42   0.707E-03
  55 F= -.11463651E+03 E0= -.11463651E+03  d E =0.145706E-01
 BRION: g(F)=  0.547E-02 g(S)=  0.000E+00
 BRIONS problems: POTIM should be increased
 retain N=  1 mean eig= 8.79
 eig:   8.786
 bond charge predicted
       N       E                     dE             d eps       ncg     rms          rms(c)
DAV:   1    -0.114357537984E+03   -0.33893E-02   -0.44082E-01    70   0.349E+00    0.134E-01
RMM:   2    -0.114357803019E+03   -0.26503E-03   -0.53145E-03    70   0.392E-01    0.844E-02
RMM:   3    -0.114357839409E+03   -0.36390E-04   -0.91803E-04    70   0.173E-01    0.197E-02
RMM:   4    -0.114357863697E+03   -0.24288E-04   -0.18858E-04    75   0.754E-02    0.102E-02
RMM:   5    -0.114357867064E+03   -0.33666E-05   -0.29189E-05    51   0.312E-02
  56 F= -.11463973E+03 E0= -.11463973E+03  d E =-.322613E-02
 BRION: g(F)=  0.520E-02 g(S)=  0.000E+00
 BRIONS problems: POTIM should be increased
 retain N=  1 mean eig= 8.60
 eig:   8.603
 bond charge predicted
       N       E                     dE             d eps       ncg     rms          rms(c)
DAV:   1    -0.114359278530E+03   -0.14148E-02   -0.80656E-02    76   0.150E+00    0.579E-02
RMM:   2    -0.114359328045E+03   -0.49515E-04   -0.10188E-03    70   0.173E-01    0.365E-02
RMM:   3    -0.114359336832E+03   -0.87864E-05   -0.18160E-04    71   0.765E-02    0.922E-03
RMM:   4    -0.114359340904E+03   -0.40727E-05   -0.35173E-05    52   0.335E-02
  57 F= -.11464101E+03 E0= -.11464101E+03  d E =-.127825E-02
 BRION: g(F)=  0.521E-02 g(S)=  0.000E+00 retain N=  1 mean eig= 1.38
 eig:   1.384
 bond charge predicted
       N       E                     dE             d eps       ncg     rms          rms(c)
DAV:   1    -0.114358897561E+03    0.43927E-03   -0.64459E-03    76   0.421E-01    0.156E-02
RMM:   2    -0.114358901435E+03   -0.38741E-05   -0.72237E-05    58   0.457E-02
  58 F= -.11464063E+03 E0= -.11464063E+03  d E =0.375763E-03
 BRION: g(F)=  0.522E-02 g(S)=  0.000E+00 retain N=  1 mean eig= 0.73
 eig:   0.731
 bond charge predicted
       N       E                     dE             d eps       ncg     rms          rms(c)
DAV:   1    -0.114359429497E+03   -0.53194E-03   -0.12567E-02    76   0.594E-01    0.211E-02
RMM:   2    -0.114359438031E+03   -0.85343E-05   -0.15404E-04    70   0.675E-02    0.130E-02
RMM:   3    -0.114359439838E+03   -0.18068E-05   -0.25700E-05    49   0.288E-02
  59 F= -.11464110E+03 E0= -.11464110E+03  d E =-.468924E-03
 BRION: g(F)=  0.505E-02 g(S)=  0.000E+00
 BRIONS problems: POTIM should be increased
 retain N=  1 mean eig=11.15
 eig:  11.150
 bond charge predicted
       N       E                     dE             d eps       ncg     rms          rms(c)
DAV:   1    -0.114362546362E+03   -0.31083E-02   -0.60675E-01    70   0.416E+00    0.160E-01
RMM:   2    -0.114362953244E+03   -0.40688E-03   -0.77456E-03    70   0.477E-01    0.998E-02
RMM:   3    -0.114363028558E+03   -0.75314E-04   -0.13684E-03    72   0.207E-01    0.290E-02
RMM:   4    -0.114363057275E+03   -0.28716E-04   -0.24999E-04    73   0.885E-02    0.130E-02
RMM:   5    -0.114363060341E+03   -0.30668E-05   -0.46463E-05    60   0.382E-02
  60 F= -.11464424E+03 E0= -.11464424E+03  d E =-.313803E-02
 BRION: g(F)=  0.499E-02 g(S)=  0.000E+00 retain N=  1 mean eig= 4.79
 eig:   4.791
 bond charge predicted
       N       E                     dE             d eps       ncg     rms          rms(c)
DAV:   1    -0.114361732744E+03    0.13245E-02   -0.70547E-02    70   0.141E+00    0.540E-02
RMM:   2    -0.114361775674E+03   -0.42930E-04   -0.85166E-04    70   0.157E-01    0.337E-02
RMM:   3    -0.114361787798E+03   -0.12123E-04   -0.14338E-04    71   0.679E-02    0.892E-03
RMM:   4    -0.114361793308E+03   -0.55098E-05   -0.28174E-05    50   0.291E-02
  61 F= -.11464315E+03 E0= -.11464315E+03  d E =0.109073E-02
 BRION: g(F)=  0.504E-02 g(S)=  0.000E+00 retain N=  1 mean eig= 0.95
 eig:   0.952
 bond charge predicted
       N       E                     dE             d eps       ncg     rms          rms(c)
DAV:   1    -0.114362713453E+03   -0.92565E-03   -0.45238E-02    76   0.114E+00    0.428E-02
RMM:   2    -0.114362742586E+03   -0.29133E-04   -0.56181E-04    70   0.128E-01    0.264E-02
RMM:   3    -0.114362749639E+03   -0.70535E-05   -0.96121E-05    72   0.550E-02
  62 F= -.11464398E+03 E0= -.11464398E+03  d E =-.828566E-03
 BRION: g(F)=  0.475E-02 g(S)=  0.000E+00 retain N=  1 mean eig= 5.27
 eig:   5.265
 bond charge predicted
       N       E                     dE             d eps       ncg     rms          rms(c)
DAV:   1    -0.114364780940E+03   -0.20384E-02   -0.28449E-01    70   0.286E+00    0.109E-01
RMM:   2    -0.114364981142E+03   -0.20020E-03   -0.37195E-03    70   0.331E-01    0.687E-02
RMM:   3    -0.114365026014E+03   -0.44871E-04   -0.65483E-04    72   0.143E-01    0.203E-02
RMM:   4    -0.114365040055E+03   -0.14041E-04   -0.12173E-04    73   0.616E-02    0.887E-03
RMM:   5    -0.114365041568E+03   -0.15132E-05   -0.22022E-05    49   0.267E-02
  63 F= -.11464596E+03 E0= -.11464596E+03  d E =-.198015E-02
 BRION: g(F)=  0.468E-02 g(S)=  0.000E+00 retain N=  1 mean eig= 7.40
 eig:   7.397
 bond charge predicted
       N       E                     dE             d eps       ncg     rms          rms(c)
DAV:   1    -0.114364772359E+03    0.26770E-03   -0.33450E-03    76   0.307E-01    0.124E-02
RMM:   2    -0.114364774641E+03   -0.22815E-05   -0.40362E-05    52   0.337E-02
  64 F= -.11464573E+03 E0= -.11464573E+03  d E =0.229416E-03
 BRION: g(F)=  0.478E-02 g(S)=  0.000E+00 retain N=  1 mean eig= 0.47
 eig:   0.473
 bond charge predicted
       N       E                     dE             d eps       ncg     rms          rms(c)
DAV:   1    -0.114365187259E+03   -0.41490E-03   -0.10707E-02    76   0.553E-01    0.185E-02
RMM:   2    -0.114365196309E+03   -0.90507E-05   -0.13540E-04    69   0.629E-02    0.114E-02
RMM:   3    -0.114365198612E+03   -0.23026E-05   -0.21217E-05    48   0.261E-02
  65 F= -.11464610E+03 E0= -.11464610E+03  d E =-.366778E-03
 BRION: g(F)=  0.443E-02 g(S)=  0.000E+00 retain N=  1 mean eig= 0.92
 eig:   0.920
 bond charge predicted
       N       E                     dE             d eps       ncg     rms          rms(c)
DAV:   1    -0.114365634196E+03   -0.43789E-03   -0.13287E-02    76   0.621E-01    0.239E-02
RMM:   2    -0.114365644285E+03   -0.10089E-04   -0.18420E-04    70   0.736E-02    0.151E-02
RMM:   3    -0.114365647664E+03   -0.33791E-05   -0.32695E-05    52   0.319E-02
  66 F= -.11464648E+03 E0= -.11464648E+03  d E =-.387619E-03
 BRION: g(F)=  0.445E-02 g(S)=  0.000E+00 retain N=  2 mean eig= 1.84
 eig:   1.843  1.843
 bond charge predicted
       N       E                     dE             d eps       ncg     rms          rms(c)
DAV:   1    -0.114368422342E+03   -0.27781E-02   -0.89269E-01    70   0.508E+00    0.192E-01
RMM:   2    -0.114369100743E+03   -0.67840E-03   -0.11917E-02    70   0.589E-01    0.120E-01
RMM:   3    -0.114369233564E+03   -0.13282E-03   -0.20318E-03    72   0.252E-01    0.400E-02
RMM:   4    -0.114369278346E+03   -0.44781E-04   -0.37406E-04    74   0.109E-01    0.159E-02
RMM:   5    -0.114369284078E+03   -0.57328E-05   -0.72828E-05    65   0.468E-02
  67 F= -.11464960E+03 E0= -.11464960E+03  d E =-.311679E-02
 BRION: g(F)=  0.437E-02 g(S)=  0.000E+00 retain N=  1 mean eig= 6.52
 eig:   6.522
 bond charge predicted
       N       E                     dE             d eps       ncg     rms          rms(c)
DAV:   1    -0.114367932987E+03    0.13454E-02   -0.10860E-01    70   0.177E+00    0.676E-02
RMM:   2    -0.114368009814E+03   -0.76827E-04   -0.14070E-03    70   0.202E-01    0.419E-02
RMM:   3    -0.114368032361E+03   -0.22547E-04   -0.23273E-04    72   0.852E-02    0.140E-02
RMM:   4    -0.114368040863E+03   -0.85024E-05   -0.41536E-05    57   0.364E-02
  68 F= -.11464854E+03 E0= -.11464854E+03  d E =0.106052E-02
 BRION: g(F)=  0.445E-02 g(S)=  0.000E+00 retain N=  1 mean eig= 0.88
 eig:   0.883
 bond charge predicted
       N       E                     dE             d eps       ncg     rms          rms(c)
DAV:   1    -0.114368926016E+03   -0.89366E-03   -0.58383E-02    73   0.130E+00    0.487E-02
RMM:   2    -0.114368966071E+03   -0.40055E-04   -0.75311E-04    70   0.148E-01    0.299E-02
RMM:   3    -0.114368976788E+03   -0.10717E-04   -0.12492E-04    72   0.627E-02    0.990E-03
RMM:   4    -0.114368979852E+03   -0.30641E-05   -0.21402E-05    49   0.269E-02
  69 F= -.11464934E+03 E0= -.11464934E+03  d E =-.803387E-03
 BRION: g(F)=  0.405E-02 g(S)=  0.000E+00 retain N=  2 mean eig= 4.15
 eig:   1.036  7.264
 bond charge predicted
       N       E                     dE             d eps       ncg     rms          rms(c)
DAV:   1    -0.114370030928E+03   -0.10541E-02   -0.88553E-02    70   0.160E+00    0.599E-02
RMM:   2    -0.114370096119E+03   -0.65192E-04   -0.11988E-03    70   0.186E-01    0.377E-02
RMM:   3    -0.114370112878E+03   -0.16759E-04   -0.20335E-04    72   0.797E-02    0.122E-02
RMM:   4    -0.114370117188E+03   -0.43097E-05   -0.36213E-05    55   0.340E-02
  70 F= -.11465031E+03 E0= -.11465031E+03  d E =-.968616E-03
 BRION: g(F)=  0.410E-02 g(S)=  0.000E+00 retain N=  2 mean eig= 2.62
 eig:   2.622  2.622
 bond charge predicted
       N       E                     dE             d eps       ncg     rms          rms(c)
DAV:   1    -0.114371108277E+03   -0.99540E-03   -0.79917E-02    70   0.152E+00    0.570E-02
RMM:   2    -0.114371167788E+03   -0.59511E-04   -0.10900E-03    70   0.178E-01    0.359E-02
RMM:   3    -0.114371182899E+03   -0.15111E-04   -0.18596E-04    72   0.763E-02    0.118E-02
RMM:   4    -0.114371187069E+03   -0.41701E-05   -0.33720E-05    55   0.327E-02
  71 F= -.11465122E+03 E0= -.11465122E+03  d E =-.907379E-03
 BRION: g(F)=  0.394E-02 g(S)=  0.000E+00 retain N=  2 mean eig= 4.12
 eig:   4.121  4.121
 bond charge predicted
       N       E                     dE             d eps       ncg     rms          rms(c)
DAV:   1    -0.114372737791E+03   -0.15549E-02   -0.22404E-01    70   0.254E+00    0.955E-02
RMM:   2    -0.114372908090E+03   -0.17030E-03   -0.30489E-03    70   0.297E-01    0.598E-02
RMM:   3    -0.114372944856E+03   -0.36765E-04   -0.51120E-04    72   0.127E-01    0.206E-02
RMM:   4    -0.114372956682E+03   -0.11827E-04   -0.94696E-05    70   0.548E-02    0.785E-03
RMM:   5    -0.114372958589E+03   -0.19069E-05   -0.16939E-05    47   0.238E-02
  72 F= -.11465271E+03 E0= -.11465271E+03  d E =-.149360E-02
 BRION: g(F)=  0.402E-02 g(S)=  0.000E+00 retain N=  2 mean eig= 1.63
 eig:   1.634  1.634
 bond charge predicted
       N       E                     dE             d eps       ncg     rms          rms(c)
DAV:   1    -0.114372278398E+03    0.67828E-03   -0.32549E-02    70   0.971E-01    0.371E-02
RMM:   2    -0.114372301942E+03   -0.23545E-04   -0.43114E-04    70   0.111E-01    0.231E-02
RMM:   3    -0.114372309134E+03   -0.71915E-05   -0.68046E-05    67   0.464E-02
  73 F= -.11465217E+03 E0= -.11465217E+03  d E =0.545782E-03
 BRION: g(F)=  0.383E-02 g(S)=  0.000E+00 retain N=  2 mean eig= 1.42
 eig:   1.182  1.662
 bond charge predicted
       N       E                     dE             d eps       ncg     rms          rms(c)
DAV:   1    -0.114372454028E+03   -0.15209E-03   -0.14181E-03    76   0.200E-01    0.792E-03
RMM:   2    -0.114372455280E+03   -0.12519E-05   -0.16763E-05    46   0.213E-02
  74 F= -.11465229E+03 E0= -.11465229E+03  d E =-.123504E-03
 BRION: g(F)=  0.371E-02 g(S)=  0.000E+00 retain N=  3 mean eig= 3.69
 eig:   0.616  5.224  5.224
 bond charge predicted
       N       E                     dE             d eps       ncg     rms          rms(c)
DAV:   1    -0.114375002675E+03   -0.25486E-02   -0.69923E+00    70   0.142E+01    0.543E-01
RMM:   2    -0.114380934744E+03   -0.59321E-02   -0.95150E-02    70   0.165E+00    0.330E-01
RMM:   3    -0.114381614362E+03   -0.67962E-03   -0.15331E-02    72   0.697E-01    0.132E-01
RMM:   4    -0.114381918013E+03   -0.30365E-03   -0.28800E-03    73   0.306E-01    0.473E-02
RMM:   5    -0.114381973319E+03   -0.55306E-04   -0.59543E-04    76   0.129E-01    0.187E-02
RMM:   6    -0.114381987693E+03   -0.14374E-04   -0.12513E-04    65   0.586E-02    0.668E-03
RMM:   7    -0.114381997101E+03   -0.94087E-05   -0.22958E-05    50   0.265E-02
  75 F= -.11466019E+03 E0= -.11466019E+03  d E =-.789454E-02
 BRION: g(F)=  0.340E-02 g(S)=  0.000E+00
 BRIONS problems: POTIM should be increased
 retain N=  1 mean eig=24.62
 eig:  24.623
 bond charge predicted
       N       E                     dE             d eps       ncg     rms          rms(c)
DAV:   1    -0.114378645558E+03    0.33421E-02   -0.63116E-01    70   0.425E+00    0.157E-01
RMM:   2    -0.114379131664E+03   -0.48611E-03   -0.83623E-03    70   0.490E-01    0.990E-02
RMM:   3    -0.114379234150E+03   -0.10249E-03   -0.13827E-03    72   0.209E-01    0.316E-02
RMM:   4    -0.114379272853E+03   -0.38703E-04   -0.24870E-04    72   0.889E-02    0.121E-02
RMM:   5    -0.114379281736E+03   -0.88828E-05   -0.43423E-05    57   0.378E-02
  76 F= -.11465797E+03 E0= -.11465797E+03  d E =0.221269E-02
 BRION: g(F)=  0.358E-02 g(S)=  0.000E+00 retain N=  1 mean eig= 1.77
 eig:   1.771
 bond charge predicted
       N       E                     dE             d eps       ncg     rms          rms(c)
DAV:   1    -0.114380782995E+03   -0.15101E-02   -0.24211E-01    70   0.263E+00    0.972E-02
RMM:   2    -0.114380963572E+03   -0.18058E-03   -0.31860E-03    70   0.302E-01    0.609E-02
RMM:   3    -0.114381002246E+03   -0.38675E-04   -0.51391E-04    72   0.128E-01    0.200E-02
RMM:   4    -0.114381013825E+03   -0.11579E-04   -0.87995E-05    69   0.541E-02    0.757E-03
RMM:   5    -0.114381015379E+03   -0.15538E-05   -0.17903E-05    49   0.236E-02
  77 F= -.11465940E+03 E0= -.11465940E+03  d E =-.142295E-02
 BRION: g(F)=  0.292E-02 g(S)=  0.000E+00 retain N=  1 mean eig= 4.94
 eig:   4.940
 bond charge predicted
       N       E                     dE             d eps       ncg     rms          rms(c)
DAV:   1    -0.114382271904E+03   -0.12581E-02   -0.17750E-01    70   0.225E+00    0.831E-02
RMM:   2    -0.114382410710E+03   -0.13881E-03   -0.24232E-03    70   0.264E-01    0.522E-02
RMM:   3    -0.114382440126E+03   -0.29416E-04   -0.40304E-04    72   0.113E-01    0.173E-02
RMM:   4    -0.114382448418E+03   -0.82923E-05   -0.70576E-05    66   0.487E-02
  78 F= -.11466056E+03 E0= -.11466056E+03  d E =-.116667E-02
 BRION: g(F)=  0.290E-02 g(S)=  0.000E+00
 BRIONS problems: POTIM should be increased
 retain N=  1 mean eig=10.93
 eig:  10.930
 bond charge predicted
       N       E                     dE             d eps       ncg     rms          rms(c)
DAV:   1    -0.114382332320E+03    0.10781E-03   -0.16193E-03    76   0.221E-01    0.118E-02
RMM:   2    -0.114382333301E+03   -0.98128E-06   -0.30430E-05    50   0.284E-02
  79 F= -.11466047E+03 E0= -.11466047E+03  d E =0.931759E-04
 BRION: g(F)=  0.296E-02 g(S)=  0.000E+00 retain N=  1 mean eig= 0.45
 eig:   0.453
 bond charge predicted
       N       E                     dE             d eps       ncg     rms          rms(c)
DAV:   1    -0.114382594552E+03   -0.26223E-03   -0.63367E-03    76   0.425E-01    0.141E-02
RMM:   2    -0.114382601098E+03   -0.65459E-05   -0.89445E-05    64   0.504E-02
  80 F= -.11466069E+03 E0= -.11466069E+03  d E =-.218467E-03
 BRION: g(F)=  0.276E-02 g(S)=  0.000E+00 retain N=  1 mean eig= 0.95
 eig:   0.953
 bond charge predicted
       N       E                     dE             d eps       ncg     rms          rms(c)
DAV:   1    -0.114382914102E+03   -0.31955E-03   -0.90037E-03    76   0.511E-01    0.217E-02
RMM:   2    -0.114382920434E+03   -0.63323E-05   -0.13581E-04    68   0.618E-02    0.140E-02
RMM:   3    -0.114382922710E+03   -0.22758E-05   -0.22883E-05    49   0.272E-02
  81 F= -.11466095E+03 E0= -.11466095E+03  d E =-.261377E-03
 BRION: g(F)=  0.278E-02 g(S)=  0.000E+00 retain N=  2 mean eig= 2.03
 eig:   0.533  3.532
 bond charge predicted
       N       E                     dE             d eps       ncg     rms          rms(c)
DAV:   1    -0.114384713042E+03   -0.17926E-02   -0.48767E-01    70   0.373E+00    0.136E-01
RMM:   2    -0.114385121033E+03   -0.40799E-03   -0.67453E-03    70   0.437E-01    0.857E-02
RMM:   3    -0.114385200372E+03   -0.79339E-04   -0.10883E-03    72   0.185E-01    0.300E-02
RMM:   4    -0.114385223741E+03   -0.23369E-04   -0.19436E-04    71   0.799E-02    0.107E-02
RMM:   5    -0.114385227494E+03   -0.37531E-05   -0.41242E-05    57   0.346E-02
  82 F= -.11466281E+03 E0= -.11466281E+03  d E =-.186124E-02
 BRION: g(F)=  0.271E-02 g(S)=  0.000E+00 retain N=  1 mean eig= 6.55
 eig:   6.546
 bond charge predicted
       N       E                     dE             d eps       ncg     rms          rms(c)
DAV:   1    -0.114384515935E+03    0.70781E-03   -0.42203E-02    70   0.110E+00    0.397E-02
RMM:   2    -0.114384548613E+03   -0.32678E-04   -0.55342E-04    70   0.125E-01    0.251E-02
RMM:   3    -0.114384557546E+03   -0.89331E-05   -0.83050E-05    71   0.521E-02
  83 F= -.11466227E+03 E0= -.11466227E+03  d E =0.538373E-03
 BRION: g(F)=  0.281E-02 g(S)=  0.000E+00 retain N=  1 mean eig= 0.88
 eig:   0.877
 bond charge predicted
       N       E                     dE             d eps       ncg     rms          rms(c)
DAV:   1    -0.114385103539E+03   -0.55493E-03   -0.30512E-02    76   0.929E-01    0.333E-02
RMM:   2    -0.114385126642E+03   -0.23103E-04   -0.40045E-04    70   0.105E-01    0.204E-02
RMM:   3    -0.114385131056E+03   -0.44141E-05   -0.59745E-05    64   0.438E-02
  84 F= -.11466273E+03 E0= -.11466273E+03  d E =-.462423E-03
 BRION: g(F)=  0.256E-02 g(S)=  0.000E+00 retain N=  1 mean eig= 3.17
 eig:   3.174
 bond charge predicted
       N       E                     dE             d eps       ncg     rms          rms(c)
DAV:   1    -0.114385922033E+03   -0.79539E-03   -0.71253E-02    70   0.142E+00    0.519E-02
RMM:   2    -0.114385981833E+03   -0.59800E-04   -0.10028E-03    70   0.169E-01    0.333E-02
RMM:   3    -0.114385996066E+03   -0.14233E-04   -0.16434E-04    72   0.721E-02    0.115E-02
RMM:   4    -0.114385999736E+03   -0.36702E-05   -0.30466E-05    53   0.312E-02
  85 F= -.11466343E+03 E0= -.11466343E+03  d E =-.697460E-03
 BRION: g(F)=  0.256E-02 g(S)=  0.000E+00 retain N=  2 mean eig= 3.81
 eig:   3.811  3.811
 bond charge predicted
       N       E                     dE             d eps       ncg     rms          rms(c)
DAV:   1    -0.114387248946E+03   -0.12529E-02   -0.21309E-01    70   0.246E+00    0.890E-02
RMM:   2    -0.114387426562E+03   -0.17762E-03   -0.29686E-03    70   0.289E-01    0.565E-02
RMM:   3    -0.114387461939E+03   -0.35378E-04   -0.47583E-04    72   0.123E-01    0.198E-02
RMM:   4    -0.114387471910E+03   -0.99706E-05   -0.84781E-05    68   0.527E-02
  86 F= -.11466461E+03 E0= -.11466461E+03  d E =-.117486E-02
 BRION: g(F)=  0.248E-02 g(S)=  0.000E+00 retain N=  1 mean eig= 3.02
 eig:   3.019
 bond charge predicted
       N       E                     dE             d eps       ncg     rms          rms(c)
DAV:   1    -0.114387177270E+03    0.28467E-03   -0.88193E-03    70   0.502E-01    0.186E-02
RMM:   2    -0.114387183304E+03   -0.60335E-05   -0.11291E-04    67   0.566E-02    0.113E-02
RMM:   3    -0.114387184989E+03   -0.16852E-05   -0.16208E-05    46   0.231E-02
  87 F= -.11466438E+03 E0= -.11466438E+03  d E =0.228029E-03
 BRION: g(F)=  0.257E-02 g(S)=  0.000E+00 retain N=  2 mean eig= 2.00
 eig:   3.604  0.393
 bond charge predicted
       N       E                     dE             d eps       ncg     rms          rms(c)
DAV:   1    -0.114387724439E+03   -0.54114E-03   -0.32490E-02    70   0.959E-01    0.341E-02
RMM:   2    -0.114387750958E+03   -0.26519E-04   -0.44052E-04    70   0.111E-01    0.213E-02
RMM:   3    -0.114387756099E+03   -0.51403E-05   -0.66510E-05    68   0.464E-02
  88 F= -.11466483E+03 E0= -.11466483E+03  d E =-.454865E-03
 BRION: g(F)=  0.235E-02 g(S)=  0.000E+00 retain N=  2 mean eig= 1.40
 eig:   0.450  2.342
 bond charge predicted
       N       E                     dE             d eps       ncg     rms          rms(c)
DAV:   1    -0.114387965467E+03   -0.21451E-03   -0.44809E-03    70   0.359E-01    0.142E-02
RMM:   2    -0.114387969931E+03   -0.44644E-05   -0.72876E-05    60   0.454E-02
  89 F= -.11466500E+03 E0= -.11466500E+03  d E =-.169932E-03
 BRION: g(F)=  0.235E-02 g(S)=  0.000E+00 retain N=  2 mean eig= 1.14
 eig:   1.143  1.143
 bond charge predicted
       N       E                     dE             d eps       ncg     rms          rms(c)
DAV:   1    -0.114388648387E+03   -0.68292E-03   -0.53913E-02    70   0.124E+00    0.471E-02
RMM:   2    -0.114388691411E+03   -0.43024E-04   -0.77355E-04    70   0.147E-01    0.302E-02
RMM:   3    -0.114388701463E+03   -0.10052E-04   -0.12362E-04    71   0.631E-02    0.998E-03
RMM:   4    -0.114388704575E+03   -0.31121E-05   -0.24232E-05    50   0.277E-02
  90 F= -.11466559E+03 E0= -.11466559E+03  d E =-.582384E-03
 BRION: g(F)=  0.231E-02 g(S)=  0.000E+00 retain N=  2 mean eig= 1.62
 eig:   1.621  1.621
 bond charge predicted
       N       E                     dE             d eps       ncg     rms          rms(c)
DAV:   1    -0.114388608190E+03    0.93272E-04   -0.11073E-03    76   0.180E-01    0.728E-03
RMM:   2    -0.114388609094E+03   -0.90314E-06   -0.15891E-05    44   0.210E-02
  91 F= -.11466551E+03 E0= -.11466551E+03  d E =0.749528E-04
 BRION: g(F)=  0.236E-02 g(S)=  0.000E+00 retain N=  3 mean eig= 2.15
 eig:   2.381  2.029  2.029
 bond charge predicted
       N       E                     dE             d eps       ncg     rms          rms(c)
DAV:   1    -0.114380200557E+03    0.84076E-02   -0.17926E+01    70   0.225E+01    0.885E-01
RMM:   2    -0.114398198593E+03   -0.17998E-01   -0.26056E-01    70   0.270E+00    0.511E-01
RMM:   3    -0.114400027437E+03   -0.18288E-02   -0.39800E-02    72   0.112E+00    0.259E-01
RMM:   4    -0.114400577979E+03   -0.55054E-03   -0.79345E-03    71   0.502E-01    0.772E-02
RMM:   5    -0.114400748163E+03   -0.17018E-03   -0.15162E-03    77   0.210E-01    0.416E-02
RMM:   6    -0.114400784246E+03   -0.36083E-04   -0.30560E-04    76   0.946E-02    0.108E-02
RMM:   7    -0.114400803161E+03   -0.18915E-04   -0.67883E-05    57   0.433E-02    0.920E-03
RMM:   8    -0.114400825475E+03   -0.22315E-04   -0.16054E-05    47   0.201E-02    0.330E-03
RMM:   9    -0.114400836215E+03   -0.10740E-04   -0.33814E-06    45   0.920E-03    0.168E-03
RMM:  10    -0.114400853131E+03   -0.16916E-04   -0.21413E-06    45   0.648E-03    0.141E-03
RMM:  11    -0.114400860740E+03   -0.76096E-05   -0.58101E-07    30   0.412E-03
  92 F= -.11467490E+03 E0= -.11467490E+03  d E =-.939070E-02
 BRION: g(F)=  0.125E+01 g(S)=  0.000E+00 retain N=  3 mean eig= 1.25
 eig:   1.874  1.874  0.011
 bond charge predicted
       N       E                     dE             d eps       ncg     rms          rms(c)
DAV:   1    -0.114370374667E+03    0.30478E-01   -0.16580E+01    70   0.216E+01    0.828E-01
RMM:   2    -0.114386600196E+03   -0.16226E-01   -0.23826E-01    70   0.258E+00    0.492E-01
RMM:   3    -0.114388285066E+03   -0.16849E-02   -0.36721E-02    72   0.108E+00    0.231E-01
RMM:   4    -0.114388858272E+03   -0.57321E-03   -0.71579E-03    71   0.478E-01    0.685E-02
RMM:   5    -0.114389006764E+03   -0.14849E-03   -0.14286E-03    77   0.201E-01    0.366E-02
RMM:   6    -0.114389037930E+03   -0.31165E-04   -0.27553E-04    72   0.919E-02    0.925E-03
RMM:   7    -0.114389056897E+03   -0.18968E-04   -0.81030E-05    61   0.458E-02    0.101E-02
RMM:   8    -0.114389077012E+03   -0.20115E-04   -0.17663E-05    47   0.209E-02    0.370E-03
RMM:   9    -0.114389085587E+03   -0.85743E-05   -0.37578E-06    45   0.980E-03
  93 F= -.11466588E+03 E0= -.11466588E+03  d E =0.902124E-02
 BRION: g(F)=  0.224E-02 g(S)=  0.000E+00 retain N=  1 mean eig= 1.22
 eig:   1.220
 bond charge predicted
       N       E                     dE             d eps       ncg     rms          rms(c)
DAV:   1    -0.114389436868E+03   -0.35986E-03   -0.12307E-02    84   0.589E-01    0.211E-02
RMM:   2    -0.114389451344E+03   -0.14477E-04   -0.17319E-04    68   0.690E-02    0.134E-02
RMM:   3    -0.114389458308E+03   -0.69636E-05   -0.26178E-05    50   0.288E-02
  94 F= -.11466618E+03 E0= -.11466618E+03  d E =-.298788E-03
 BRION: g(F)=  0.217E-02 g(S)=  0.000E+00 retain N=  2 mean eig= 1.70
 eig:   1.699  1.699
 bond charge predicted
       N       E                     dE             d eps       ncg     rms          rms(c)
DAV:   1    -0.114389802350E+03   -0.35101E-03   -0.12457E-02    76   0.594E-01    0.221E-02
RMM:   2    -0.114389815327E+03   -0.12977E-04   -0.18457E-04    69   0.720E-02    0.142E-02
RMM:   3    -0.114389820148E+03   -0.48208E-05   -0.30212E-05    51   0.307E-02
  95 F= -.11466647E+03 E0= -.11466647E+03  d E =-.286485E-03
 BRION: g(F)=  0.216E-02 g(S)=  0.000E+00 retain N=  3 mean eig= 4.93
 eig:   6.908  6.908  0.962
 bond charge predicted
       N       E                     dE             d eps       ncg     rms          rms(c)
DAV:   1    -0.114391158326E+03   -0.13430E-02   -0.47335E+00    70   0.115E+01    0.425E-01
RMM:   2    -0.114395602309E+03   -0.44440E-02   -0.67086E-02    70   0.136E+00    0.262E-01
RMM:   3    -0.114396194432E+03   -0.59212E-03   -0.10492E-02    72   0.572E-01    0.110E-01
RMM:   4    -0.114396402647E+03   -0.20821E-03   -0.19523E-03    73   0.250E-01    0.357E-02
RMM:   5    -0.114396440715E+03   -0.38067E-04   -0.38123E-04    74   0.104E-01    0.149E-02
RMM:   6    -0.114396449299E+03   -0.85838E-05   -0.74309E-05    60   0.473E-02
  96 F= -.11467159E+03 E0= -.11467159E+03  d E =-.512472E-02
 BRION: g(F)=  0.178E-02 g(S)=  0.000E+00
 BRIONS problems: POTIM should be increased
 retain N=  1 mean eig=32.38
 eig:  32.378
 bond charge predicted
       N       E                     dE             d eps       ncg     rms          rms(c)
DAV:   1    -0.114395779833E+03    0.66088E-03   -0.54519E-02    76   0.124E+00    0.450E-02
RMM:   2    -0.114395827559E+03   -0.47725E-04   -0.72958E-04    70   0.143E-01    0.285E-02
RMM:   3    -0.114395842448E+03   -0.14889E-04   -0.11313E-04    72   0.597E-02    0.980E-03
RMM:   4    -0.114395848857E+03   -0.64090E-05   -0.19678E-05    48   0.257E-02
  97 F= -.11467113E+03 E0= -.11467113E+03  d E =0.455462E-03
 BRION: g(F)=  0.182E-02 g(S)=  0.000E+00 retain N=  1 mean eig= 3.05
 eig:   3.046
 bond charge predicted
       N       E                     dE             d eps       ncg     rms          rms(c)
DAV:   1    -0.114396381104E+03   -0.53866E-03   -0.34098E-02    70   0.974E-01    0.345E-02
RMM:   2    -0.114396411001E+03   -0.29898E-04   -0.46901E-04    70   0.114E-01    0.216E-02
RMM:   3    -0.114396417877E+03   -0.68753E-05   -0.71704E-05    64   0.478E-02
  98 F= -.11467157E+03 E0= -.11467157E+03  d E =-.433681E-03
 BRION: g(F)=  0.170E-02 g(S)=  0.000E+00
 BRIONS problems: POTIM should be increased
 retain N=  1 mean eig= 8.55
 eig:   8.550
 bond charge predicted
       N       E                     dE             d eps       ncg     rms          rms(c)
DAV:   1    -0.114397322607E+03   -0.91161E-03   -0.10623E-01    70   0.171E+00    0.613E-02
RMM:   2    -0.114397425536E+03   -0.10293E-03   -0.15904E-03    71   0.206E-01    0.399E-02
RMM:   3    -0.114397442220E+03   -0.16684E-04   -0.21215E-04    70   0.852E-02    0.149E-02
RMM:   4    -0.114397448783E+03   -0.65636E-05   -0.49896E-05    57   0.397E-02
  99 F= -.11467235E+03 E0= -.11467235E+03  d E =-.778425E-03
 BRION: g(F)=  0.171E-02 g(S)=  0.000E+00 retain N=  1 mean eig= 6.24
 eig:   6.245
 bond charge predicted
       N       E                     dE             d eps       ncg     rms          rms(c)
DAV:   1    -0.114396996008E+03    0.44621E-03   -0.22426E-02    70   0.794E-01    0.279E-02
RMM:   2    -0.114397014369E+03   -0.18361E-04   -0.29510E-04    70   0.908E-02    0.174E-02
RMM:   3    -0.114397018781E+03   -0.44112E-05   -0.44183E-05    55   0.379E-02
 100 F= -.11467202E+03 E0= -.11467202E+03  d E =0.324741E-03
 BRION: g(F)=  0.176E-02 g(S)=  0.000E+00 retain N=  1 mean eig= 1.45
 eig:   1.454
 bond charge predicted
       N       E                     dE             d eps       ncg     rms          rms(c)
DAV:   1    -0.114397419901E+03   -0.40553E-03   -0.17475E-02    70   0.689E-01    0.240E-02
RMM:   2    -0.114397436252E+03   -0.16351E-04   -0.25072E-04    69   0.800E-02    0.150E-02
RMM:   3    -0.114397438621E+03   -0.23681E-05   -0.30764E-05    50   0.321E-02
 101 F= -.11467234E+03 E0= -.11467234E+03  d E =-.316462E-03
 BRION: g(F)=  0.165E-02 g(S)=  0.000E+00
 BRIONS problems: POTIM should be increased
 retain N=  1 mean eig=14.34
 eig:  14.337
 bond charge predicted
       N       E                     dE             d eps       ncg     rms          rms(c)
DAV:   1    -0.114398971624E+03   -0.15354E-02   -0.42639E-01    70   0.340E+00    0.121E-01
RMM:   2    -0.114399396511E+03   -0.42489E-03   -0.64435E-03    71   0.408E-01    0.780E-02
RMM:   3    -0.114399461634E+03   -0.65123E-04   -0.85966E-04    71   0.168E-01    0.313E-02
RMM:   4    -0.114399483404E+03   -0.21770E-04   -0.17909E-04    71   0.757E-02    0.914E-03
RMM:   5    -0.114399487077E+03   -0.36725E-05   -0.32689E-05    52   0.307E-02
 102 F= -.11467387E+03 E0= -.11467387E+03  d E =-.152785E-02
 BRION: g(F)=  0.121E+01 g(S)=  0.000E+00 retain N=  1 mean eig= 0.12
 eig:   0.116
 bond charge predicted
       N       E                     dE             d eps       ncg     rms          rms(c)
DAV:   1    -0.114397168348E+03    0.23151E-02   -0.36657E-01    70   0.316E+00    0.111E-01
RMM:   2    -0.114397523148E+03   -0.35480E-03   -0.53936E-03    71   0.374E-01    0.719E-02
RMM:   3    -0.114397574457E+03   -0.51309E-04   -0.68258E-04    70   0.153E-01    0.278E-02
RMM:   4    -0.114397595875E+03   -0.21419E-04   -0.15957E-04    72   0.705E-02    0.835E-03
RMM:   5    -0.114397599117E+03   -0.32418E-05   -0.25234E-05    51   0.279E-02
 103 F= -.11467246E+03 E0= -.11467246E+03  d E =0.140860E-02
 BRION: g(F)=  0.174E-02 g(S)=  0.000E+00 retain N=  1 mean eig= 0.12
 eig:   0.116
 bond charge predicted
       N       E                     dE             d eps       ncg     rms          rms(c)
DAV:   1    -0.114397755236E+03   -0.15936E-03   -0.33765E-03    84   0.294E-01    0.108E-02
RMM:   2    -0.114397758882E+03   -0.36461E-05   -0.52159E-05    53   0.348E-02
 104 F= -.11467258E+03 E0= -.11467258E+03  d E =-.119130E-03
 BRION: g(F)=  0.167E-02 g(S)=  0.000E+00 retain N=  2 mean eig= 0.43
 eig:   0.123  0.737
 bond charge predicted
       N       E                     dE             d eps       ncg     rms          rms(c)
DAV:   1    -0.114397865802E+03   -0.11057E-03   -0.15066E-03    76   0.201E-01    0.100E-02
RMM:   2    -0.114397867018E+03   -0.12154E-05   -0.28580E-05    47   0.267E-02
 105 F= -.11467266E+03 E0= -.11467266E+03  d E =-.800834E-04
 BRION: g(F)=  0.120E+01 g(S)=  0.000E+00 retain N=  2 mean eig= 0.37
 eig:   0.742  0.004
 bond charge predicted
       N       E                     dE             d eps       ncg     rms          rms(c)
DAV:   1    -0.114397852825E+03    0.12977E-04   -0.35469E-05    76   0.314E-02    0.223E-03
RMM:   2    -0.114397853004E+03   -0.17939E-06   -0.73035E-07    28   0.522E-03
 106 F= -.11467265E+03 E0= -.11467265E+03  d E =0.102921E-04
 BRION: g(F)=  0.120E+01 g(S)=  0.000E+00 retain N=  3 mean eig= 1.08
 eig:   1.976  1.212  0.037
 bond charge predicted
       N       E                     dE             d eps       ncg     rms          rms(c)
DAV:   1    -0.114398162183E+03   -0.30936E-03   -0.10501E-02    70   0.542E-01    0.196E-02
RMM:   2    -0.114398169985E+03   -0.78027E-05   -0.13928E-04    65   0.625E-02    0.124E-02
RMM:   3    -0.114398171396E+03   -0.14107E-05   -0.21038E-05    48   0.266E-02
 107 F= -.11467288E+03 E0= -.11467288E+03  d E =-.236884E-03
 BRION: g(F)=  0.120E+01 g(S)=  0.000E+00 retain N=  4 mean eig= 1.68
 eig:   2.906  2.906  0.892  0.035
 bond charge predicted
       N       E                     dE             d eps       ncg     rms          rms(c)
DAV:   1    -0.114398424720E+03   -0.25473E-03   -0.79463E-03    70   0.475E-01    0.179E-02
RMM:   2    -0.114398430594E+03   -0.58745E-05   -0.10854E-04    65   0.560E-02    0.115E-02
RMM:   3    -0.114398431917E+03   -0.13228E-05   -0.17808E-05    47   0.243E-02
 108 F= -.11467308E+03 E0= -.11467308E+03  d E =-.195356E-03
 BRION: g(F)=  0.121E+01 g(S)=  0.000E+00 retain N=  5 mean eig= 3.55
 eig:   7.841  7.841  1.034  1.034  0.023
 bond charge predicted
       N       E                     dE             d eps       ncg     rms          rms(c)
DAV:   1    -0.114399249056E+03   -0.81846E-03   -0.10405E-01    70   0.172E+00    0.626E-02
RMM:   2    -0.114399322777E+03   -0.73720E-04   -0.13478E-03    70   0.197E-01    0.397E-02
RMM:   3    -0.114399335295E+03   -0.12519E-04   -0.21507E-04    70   0.852E-02    0.117E-02
RMM:   4    -0.114399340993E+03   -0.56977E-05   -0.49740E-05    58   0.386E-02
 109 F= -.11467375E+03 E0= -.11467375E+03  d E =-.673710E-03
 BRION: g(F)=  0.121E+01 g(S)=  0.000E+00
 BRIONS problems: POTIM should be increased
 retain N=  1 mean eig=13.81
 eig:  13.812
 bond charge predicted
[...]
DAV:   1    -0.114413419008E+03    0.17071E-02   -0.50859E-01    70   0.368E+00    0.153E-01
RMM:   2    -0.114413579292E+03   -0.16028E-03   -0.49657E-03    70   0.384E-01    0.950E-02
RMM:   3    -0.114413617996E+03   -0.38705E-04   -0.12162E-03    72   0.175E-01    0.150E-02
RMM:   4    -0.114413635781E+03   -0.17784E-04   -0.21299E-04    75   0.733E-02    0.113E-02
RMM:   5    -0.114413637874E+03   -0.20934E-05   -0.42476E-05    56   0.337E-02
 182 F= -.11468224E+03 E0= -.11468224E+03  d E =0.983727E-03
 BRION: g(F)=  0.615E-02 g(S)=  0.000E+00 retain N=  1 mean eig= 3.92
 eig:   3.920
 bond charge predicted
       N       E                     dE             d eps       ncg     rms          rms(c)
DAV:   1    -0.114413552991E+03    0.82789E-04   -0.10610E-02    92   0.539E-01    0.268E-02
RMM:   2    -0.114413556626E+03   -0.36350E-05   -0.12332E-04    69   0.613E-02    0.164E-02
RMM:   3    -0.114413560308E+03   -0.36815E-05   -0.29030E-05    53   0.285E-02
 183 F= -.11468226E+03 E0= -.11468226E+03  d E =-.178012E-04
 BRION: g(F)=  0.600E-02 g(S)=  0.000E+00 retain N=  1 mean eig= 0.59
 eig:   0.588
 bond charge predicted
       N       E                     dE             d eps       ncg     rms          rms(c)
DAV:   1    -0.114413341935E+03    0.21469E-03   -0.17273E-02    76   0.681E-01    0.318E-02
RMM:   2    -0.114413348432E+03   -0.64961E-05   -0.19048E-04    70   0.763E-02    0.197E-02
RMM:   3    -0.114413352541E+03   -0.41098E-05   -0.43361E-05    58   0.347E-02
 184 F= -.11468216E+03 E0= -.11468216E+03  d E =0.961314E-04
 BRION: g(F)=  0.580E-02 g(S)=  0.000E+00 retain N=  1 mean eig= 0.70
 eig:   0.703
 bond charge predicted
       N       E                     dE             d eps       ncg     rms          rms(c)
DAV:   1    -0.114413103365E+03    0.24507E-03   -0.23113E-02    76   0.790E-01    0.370E-02
RMM:   2    -0.114413111741E+03   -0.83763E-05   -0.25904E-04    70   0.889E-02    0.229E-02
RMM:   3    -0.114413116642E+03   -0.49006E-05   -0.60379E-05    64   0.407E-02
 185 F= -.11468206E+03 E0= -.11468206E+03  d E =0.105087E-03
 BRION: g(F)=  0.565E-02 g(S)=  0.000E+00 retain N=  2 mean eig= 2.34
 eig:   2.344  2.344
 bond charge predicted
       N       E                     dE             d eps       ncg     rms          rms(c)
DAV:   1    -0.114407385556E+03    0.57262E-02   -0.36948E+00    70   0.996E+00    0.462E-01
RMM:   2    -0.114408703431E+03   -0.13179E-02   -0.38683E-02    70   0.108E+00    0.281E-01
RMM:   3    -0.114408820465E+03   -0.11703E-03   -0.88388E-03    72   0.487E-01    0.501E-02
RMM:   4    -0.114408985108E+03   -0.16464E-03   -0.16659E-03    76   0.208E-01    0.317E-02
RMM:   5    -0.114409011743E+03   -0.26636E-04   -0.37141E-04    77   0.957E-02    0.134E-02
RMM:   6    -0.114409026227E+03   -0.14484E-04   -0.49829E-05    57   0.354E-02    0.779E-03
RMM:   7    -0.114409048658E+03   -0.22431E-04   -0.11559E-05    47   0.173E-02    0.284E-03
RMM:   8    -0.114409061514E+03   -0.12856E-04   -0.38846E-06    45   0.952E-03    0.137E-03
RMM:   9    -0.114409074212E+03   -0.12698E-04   -0.19694E-06    44   0.631E-03    0.874E-04
RMM:  10    -0.114409087687E+03   -0.13475E-04   -0.17506E-06    38   0.491E-03    0.114E-03
RMM:  11    -0.114409092394E+03   -0.47074E-05   -0.30683E-07    26   0.350E-03
 186 F= -.11467966E+03 E0= -.11467966E+03  d E =0.239918E-02
 BRION: g(F)=  0.487E-02 g(S)=  0.000E+00
 BRIONS problems: POTIM should be increased
 retain N=  1 mean eig= 9.45
 eig:   9.454
 bond charge predicted
       N       E                     dE             d eps       ncg     rms          rms(c)
DAV:   1    -0.114409803632E+03   -0.71595E-03   -0.89224E-02    76   0.155E+00    0.717E-02
RMM:   2    -0.114409826667E+03   -0.23035E-04   -0.91258E-04    70   0.166E-01    0.438E-02
RMM:   3    -0.114409836419E+03   -0.97517E-05   -0.21334E-04    72   0.753E-02    0.691E-03
RMM:   4    -0.114409840285E+03   -0.38659E-05   -0.35899E-05    54   0.318E-02
 187 F= -.11468015E+03 E0= -.11468015E+03  d E =-.495881E-03
 BRION: g(F)=  0.476E-02 g(S)=  0.000E+00 retain N=  1 mean eig= 1.27
 eig:   1.270
 bond charge predicted
       N       E                     dE             d eps       ncg     rms          rms(c)
DAV:   1    -0.114409278087E+03    0.55833E-03   -0.51725E-02    76   0.118E+00    0.537E-02
RMM:   2    -0.114409289410E+03   -0.11323E-04   -0.50608E-04    70   0.124E-01    0.327E-02
RMM:   3    -0.114409295937E+03   -0.65278E-05   -0.11717E-04    69   0.558E-02    0.519E-03
RMM:   4    -0.114409298196E+03   -0.22592E-05   -0.19424E-05    47   0.235E-02
 188 F= -.11467980E+03 E0= -.11467980E+03  d E =0.355231E-03
 BRION: g(F)=  0.457E-02 g(S)=  0.000E+00 retain N=  2 mean eig= 1.95
 eig:   2.724  1.174
 bond charge predicted
       N       E                     dE             d eps       ncg     rms          rms(c)
DAV:   1    -0.114408806775E+03    0.48916E-03   -0.44442E-02    73   0.111E+00    0.507E-02
RMM:   2    -0.114408818419E+03   -0.11644E-04   -0.48720E-04    70   0.121E-01    0.309E-02
RMM:   3    -0.114408823171E+03   -0.47515E-05   -0.11346E-04    70   0.543E-02    0.700E-03
RMM:   4    -0.114408824729E+03   -0.15584E-05   -0.17926E-05    47   0.228E-02
 189 F= -.11467947E+03 E0= -.11467947E+03  d E =0.322634E-03
 BRION: g(F)=  0.419E-02 g(S)=  0.000E+00 retain N=  3 mean eig= 2.79
 eig:   4.295  2.036  2.036
 bond charge predicted
       N       E                     dE             d eps       ncg     rms          rms(c)
DAV:   1    -0.114408101329E+03    0.72184E-03   -0.87127E-02    70   0.156E+00    0.695E-02
RMM:   2    -0.114408127275E+03   -0.25947E-04   -0.96227E-04    70   0.171E-01    0.428E-02
RMM:   3    -0.114408135897E+03   -0.86214E-05   -0.22603E-04    72   0.778E-02    0.860E-03
RMM:   4    -0.114408140199E+03   -0.43027E-05   -0.43717E-05    56   0.334E-02
 190 F= -.11467900E+03 E0= -.11467900E+03  d E =0.473594E-03
 BRION: g(F)=  0.392E-02 g(S)=  0.000E+00 retain N=  4 mean eig= 3.50
 eig:   4.633  4.266  4.266  0.852
 bond charge predicted
       N       E                     dE             d eps       ncg     rms          rms(c)
DAV:   1    -0.114408012496E+03    0.12340E-03   -0.44275E-03    76   0.358E-01    0.176E-02
RMM:   2    -0.114408014440E+03   -0.19448E-05   -0.57356E-05    61   0.423E-02
 191 F= -.11467892E+03 E0= -.11467892E+03  d E =0.856329E-04
 BRION: g(F)=  0.376E-02 g(S)=  0.000E+00 retain N=  3 mean eig= 3.11
 eig:   6.039  0.805  2.476
 bond charge predicted
       N       E                     dE             d eps       ncg     rms          rms(c)
DAV:   1    -0.114407954487E+03    0.58008E-04   -0.13238E-03    76   0.204E-01    0.130E-02
RMM:   2    -0.114407955356E+03   -0.86833E-06   -0.24206E-05    49   0.269E-02
 192 F= -.11467888E+03 E0= -.11467888E+03  d E =0.324271E-04
 BRION: g(F)=  0.375E-02 g(S)=  0.000E+00 retain N=  3 mean eig= 1.50
 eig:   3.064  0.939  0.501
 bond charge predicted
       N       E                     dE             d eps       ncg     rms          rms(c)
DAV:   1    -0.114407733443E+03    0.22104E-03   -0.10921E-02    76   0.559E-01    0.278E-02
RMM:   2    -0.114407735666E+03   -0.22229E-05   -0.12900E-04    69   0.633E-02    0.169E-02
RMM:   3    -0.114407737537E+03   -0.18709E-05   -0.29041E-05    52   0.283E-02
 193 F= -.11467874E+03 E0= -.11467874E+03  d E =0.147085E-03
 BRION: g(F)=  0.359E-02 g(S)=  0.000E+00 retain N=  3 mean eig= 1.14
 eig:   2.381  0.520  0.520
 bond charge predicted
       N       E                     dE             d eps       ncg     rms          rms(c)
DAV:   1    -0.114407445336E+03    0.29033E-03   -0.20527E-02    76   0.762E-01    0.360E-02
RMM:   2    -0.114407452317E+03   -0.69809E-05   -0.23595E-04    70   0.860E-02    0.221E-02
RMM:   3    -0.114407456609E+03   -0.42919E-05   -0.53745E-05    63   0.384E-02
 194 F= -.11467856E+03 E0= -.11467856E+03  d E =0.179110E-03
 BRION: g(F)=  0.343E-02 g(S)=  0.000E+00 retain N=  3 mean eig= 1.26
 eig:   2.116  0.530  1.135
 bond charge predicted
       N       E                     dE             d eps       ncg     rms          rms(c)
DAV:   1    -0.114407395403E+03    0.56914E-04   -0.14410E-03    76   0.205E-01    0.107E-02
RMM:   2    -0.114407396707E+03   -0.13038E-05   -0.22245E-05    49   0.265E-02
 195 F= -.11467853E+03 E0= -.11467853E+03  d E =0.312275E-04
 BRION: g(F)=  0.339E-02 g(S)=  0.000E+00 retain N=  3 mean eig= 1.04
 eig:   2.231  0.452  0.452
 bond charge predicted
       N       E                     dE             d eps       ncg     rms          rms(c)
DAV:   1    -0.114407361574E+03    0.33830E-04   -0.31318E-03    76   0.312E-01    0.162E-02
RMM:   2    -0.114407363010E+03   -0.14362E-05   -0.42139E-05    58   0.366E-02
 196 F= -.11467853E+03 E0= -.11467853E+03  d E =-.337962E-05
 BRION: g(F)=  0.330E-02 g(S)=  0.000E+00 retain N=  4 mean eig= 3.01
 eig:   7.185  3.229  0.622  0.986
 bond charge predicted
       N       E                     dE             d eps       ncg     rms          rms(c)
DAV:   1    -0.114407613700E+03   -0.25213E-03   -0.29593E-02    70   0.962E-01    0.325E-02
RMM:   2    -0.114407633784E+03   -0.20083E-04   -0.33622E-04    70   0.100E-01    0.210E-02
RMM:   3    -0.114407640377E+03   -0.65929E-05   -0.52852E-05    62   0.422E-02
 197 F= -.11467883E+03 E0= -.11467883E+03  d E =-.297851E-03
 BRION: g(F)=  0.274E-02 g(S)=  0.000E+00 retain N=  4 mean eig= 3.98
 eig:   6.834  4.235  4.235  0.623
 bond charge predicted
       N       E                     dE             d eps       ncg     rms          rms(c)
DAV:   1    -0.114408101339E+03   -0.46755E-03   -0.39317E-02    76   0.104E+00    0.377E-02
RMM:   2    -0.114408119057E+03   -0.17718E-04   -0.43492E-04    70   0.111E-01    0.233E-02
RMM:   3    -0.114408120002E+03   -0.94518E-06   -0.72132E-05    69   0.475E-02
 198 F= -.11467922E+03 E0= -.11467922E+03  d E =-.389393E-03
 BRION: g(F)=  0.249E-02 g(S)=  0.000E+00 retain N=  3 mean eig= 2.84
 eig:   7.159  0.674  0.674
 bond charge predicted
       N       E                     dE             d eps       ncg     rms          rms(c)
DAV:   1    -0.114408110608E+03    0.84491E-05   -0.19102E-02    76   0.786E-01    0.315E-02
RMM:   2    -0.114408123891E+03   -0.13283E-04   -0.23659E-04    70   0.854E-02    0.191E-02
RMM:   3    -0.114408128713E+03   -0.48215E-05   -0.40270E-05    57   0.358E-02
 199 F= -.11467925E+03 E0= -.11467925E+03  d E =-.380550E-04
 BRION: g(F)=  0.203E-02 g(S)=  0.000E+00 retain N=  4 mean eig= 3.06
 eig:   6.320  3.890  1.550  0.478
 bond charge predicted
       N       E                     dE             d eps       ncg     rms          rms(c)
DAV:   1    -0.114408347195E+03   -0.22330E-03   -0.20466E-02    76   0.759E-01    0.243E-02
RMM:   2    -0.114408359378E+03   -0.12183E-04   -0.23206E-04    70   0.811E-02    0.160E-02
RMM:   3    -0.114408361173E+03   -0.17944E-05   -0.37150E-05    55   0.345E-02
 200 F= -.11467944E+03 E0= -.11467944E+03  d E =-.182475E-03
 BRION: g(F)=  0.181E-02 g(S)=  0.000E+00 retain N=  4 mean eig= 2.28
 eig:   4.685  1.428  1.428  1.564
 bond charge predicted
       N       E                     dE             d eps       ncg     rms          rms(c)
DAV:   1    -0.114408596684E+03   -0.23731E-03   -0.15566E-02    76   0.656E-01    0.220E-02
RMM:   2    -0.114408606989E+03   -0.10305E-04   -0.17846E-04    70   0.712E-02    0.142E-02
RMM:   3    -0.114408608958E+03   -0.19688E-05   -0.29857E-05    54   0.308E-02
 201 F= -.11467962E+03 E0= -.11467962E+03  d E =-.183904E-03
 BRION: g(F)=  0.165E-02 g(S)=  0.000E+00 retain N=  4 mean eig= 1.23
 eig:   1.393  1.393  0.258  1.861
 bond charge predicted
       N       E                     dE             d eps       ncg     rms          rms(c)
DAV:   1    -0.114408917455E+03   -0.31047E-03   -0.26118E-02    70   0.844E-01    0.289E-02
RMM:   2    -0.114408933651E+03   -0.16196E-04   -0.29670E-04    70   0.915E-02    0.187E-02
RMM:   3    -0.114408935991E+03   -0.23397E-05   -0.49745E-05    59   0.398E-02
 202 F= -.11467985E+03 E0= -.11467985E+03  d E =-.233906E-03
 BRION: g(F)=  0.157E-02 g(S)=  0.000E+00 retain N=  4 mean eig= 1.83
 eig:   2.439  2.439  1.902  0.556
 bond charge predicted
       N       E                     dE             d eps       ncg     rms          rms(c)
DAV:   1    -0.114409597902E+03   -0.66425E-03   -0.16593E-01    70   0.211E+00    0.734E-02
RMM:   2    -0.114409689810E+03   -0.91907E-04   -0.17931E-03    70   0.224E-01    0.470E-02
RMM:   3    -0.114409699743E+03   -0.99331E-05   -0.30801E-04    70   0.984E-02    0.131E-02
RMM:   4    -0.114409707861E+03   -0.81181E-05   -0.71613E-05    63   0.446E-02
 203 F= -.11468037E+03 E0= -.11468037E+03  d E =-.519432E-03
 BRION: g(F)=  0.135E-02 g(S)=  0.000E+00 retain N=  4 mean eig= 3.66
 eig:   6.280  6.280  1.049  1.049
 bond charge predicted
       N       E                     dE             d eps       ncg     rms          rms(c)
DAV:   1    -0.114410300368E+03   -0.60063E-03   -0.13746E-01    70   0.192E+00    0.693E-02
RMM:   2    -0.114410375502E+03   -0.75134E-04   -0.15258E-03    70   0.206E-01    0.440E-02
RMM:   3    -0.114410381902E+03   -0.64002E-05   -0.25722E-04    70   0.902E-02    0.132E-02
RMM:   4    -0.114410389062E+03   -0.71595E-05   -0.59156E-05    61   0.410E-02
 204 F= -.11468080E+03 E0= -.11468080E+03  d E =-.427697E-03
 BRION: g(F)=  0.121E-02 g(S)=  0.000E+00 retain N=  4 mean eig= 4.47
 eig:   7.622  7.622  1.318  1.318
 bond charge predicted
       N       E                     dE             d eps       ncg     rms          rms(c)
DAV:   1    -0.114410904036E+03   -0.52213E-03   -0.91612E-02    70   0.156E+00    0.579E-02
RMM:   2    -0.114410953136E+03   -0.49101E-04   -0.10212E-03    70   0.169E-01    0.369E-02
RMM:   3    -0.114410958377E+03   -0.52410E-05   -0.17976E-04    70   0.749E-02    0.958E-03
RMM:   4    -0.114410963503E+03   -0.51257E-05   -0.39663E-05    56   0.337E-02
 205 F= -.11468115E+03 E0= -.11468115E+03  d E =-.351592E-03
 BRION: g(F)=  0.104E-02 g(S)=  0.000E+00 retain N=  3 mean eig= 4.11
 eig:   5.431  5.431  1.478
 bond charge predicted
       N       E                     dE             d eps       ncg     rms          rms(c)
DAV:   1    -0.114411454097E+03   -0.49572E-03   -0.59267E-02    70   0.126E+00    0.483E-02
RMM:   2    -0.114411484469E+03   -0.30372E-04   -0.66747E-04    70   0.137E-01    0.306E-02
RMM:   3    -0.114411488495E+03   -0.40253E-05   -0.12039E-04    70   0.611E-02    0.730E-03
RMM:   4    -0.114411491893E+03   -0.33986E-05   -0.24720E-05    48   0.273E-02
 206 F= -.11468149E+03 E0= -.11468149E+03  d E =-.336353E-03
 BRION: g(F)=  0.922E-03 g(S)=  0.000E+00 retain N=  3 mean eig= 3.70
 eig:   4.902  4.902  1.310
 bond charge predicted
       N       E                     dE             d eps       ncg     rms          rms(c)
DAV:   1    -0.114412255408E+03   -0.76691E-03   -0.18336E-01    70   0.221E+00    0.841E-02
RMM:   2    -0.114412349364E+03   -0.93956E-04   -0.20381E-03    70   0.240E-01    0.526E-02
RMM:   3    -0.114412357963E+03   -0.85985E-05   -0.35717E-04    70   0.106E-01    0.135E-02
RMM:   4    -0.114412367089E+03   -0.91264E-05   -0.77766E-05    66   0.473E-02
 207 F= -.11468202E+03 E0= -.11468202E+03  d E =-.527795E-03
 BRION: g(F)=  0.804E-03 g(S)=  0.000E+00 retain N=  3 mean eig= 4.79
 eig:   6.467  6.467  1.433
 bond charge predicted
       N       E                     dE             d eps       ncg     rms          rms(c)
DAV:   1    -0.114413070407E+03   -0.71244E-03   -0.90924E-02    70   0.156E+00    0.621E-02
RMM:   2    -0.114413118460E+03   -0.48053E-04   -0.10482E-03    70   0.173E-01    0.393E-02
RMM:   3    -0.114413125650E+03   -0.71897E-05   -0.19104E-04    70   0.772E-02    0.835E-03
RMM:   4    -0.114413130388E+03   -0.47378E-05   -0.38457E-05    56   0.340E-02
 208 F= -.11468251E+03 E0= -.11468251E+03  d E =-.495454E-03
 BRION: g(F)=  0.714E-03 g(S)=  0.000E+00 retain N=  3 mean eig= 5.81
 eig:   1.757  7.835  7.835
 bond charge predicted
       N       E                     dE             d eps       ncg     rms          rms(c)
DAV:   1    -0.114413714894E+03   -0.58924E-03   -0.46095E-02    76   0.112E+00    0.454E-02
RMM:   2    -0.114413739644E+03   -0.24751E-04   -0.54670E-04    70   0.125E-01    0.285E-02
RMM:   3    -0.114413744308E+03   -0.46631E-05   -0.10041E-04    70   0.561E-02    0.587E-03
RMM:   4    -0.114413746993E+03   -0.26855E-05   -0.19150E-05    48   0.246E-02
 209 F= -.11468293E+03 E0= -.11468293E+03  d E =-.415554E-03
 BRION: g(F)=  0.651E-03 g(S)=  0.000E+00 retain N=  2 mean eig= 4.86
 eig:   4.857  4.857
 bond charge predicted
       N       E                     dE             d eps       ncg     rms          rms(c)
DAV:   1    -0.114414471962E+03   -0.72765E-03   -0.52831E-02    70   0.120E+00    0.499E-02
RMM:   2    -0.114414499812E+03   -0.27850E-04   -0.63230E-04    70   0.135E-01    0.311E-02
RMM:   3    -0.114414505094E+03   -0.52818E-05   -0.11322E-04    70   0.599E-02    0.693E-03
RMM:   4    -0.114414508049E+03   -0.29557E-05   -0.21893E-05    48   0.265E-02
 210 F= -.11468346E+03 E0= -.11468346E+03  d E =-.530289E-03
 BRION: g(F)=  0.598E-03 g(S)=  0.000E+00 retain N=  2 mean eig= 4.07
 eig:   4.065  4.065
 bond charge predicted
       N       E                     dE             d eps       ncg     rms          rms(c)
DAV:   1    -0.114414924044E+03   -0.41895E-03   -0.92135E-03    76   0.513E-01    0.230E-02
RMM:   2    -0.114414929774E+03   -0.57296E-05   -0.12608E-04    67   0.608E-02    0.143E-02
RMM:   3    -0.114414931863E+03   -0.20890E-05   -0.22108E-05    47   0.266E-02
 211 F= -.11468378E+03 E0= -.11468378E+03  d E =-.318272E-03
 BRION: g(F)=  0.567E-03 g(S)=  0.000E+00 retain N=  3 mean eig= 4.49
 eig:   6.199  6.199  1.078
 bond charge predicted
       N       E                     dE             d eps       ncg     rms          rms(c)
DAV:   1    -0.114416180035E+03   -0.12503E-02   -0.16803E-01    70   0.215E+00    0.897E-02
RMM:   2    -0.114416274862E+03   -0.94827E-04   -0.20089E-03    70   0.242E-01    0.557E-02
RMM:   3    -0.114416290220E+03   -0.15358E-04   -0.35317E-04    70   0.107E-01    0.121E-02
RMM:   4    -0.114416298428E+03   -0.82083E-05   -0.68736E-05    66   0.470E-02
 212 F= -.11468472E+03 E0= -.11468472E+03  d E =-.943178E-03
 BRION: g(F)=  0.479E-03 g(S)=  0.000E+00 retain N=  1 mean eig= 7.18
 eig:   7.178
 bond charge predicted
       N       E                     dE             d eps       ncg     rms          rms(c)
DAV:   1    -0.114416403635E+03   -0.11342E-03   -0.67883E-04    92   0.148E-01    0.587E-03
RMM:   2    -0.114416404525E+03   -0.89003E-06   -0.71163E-06    43   0.149E-02
 213 F= -.11468482E+03 E0= -.11468482E+03  d E =-.992530E-04
 BRION: g(F)=  0.469E-03 g(S)=  0.000E+00 retain N=  1 mean eig= 0.63
 eig:   0.631
 bond charge predicted
       N       E                     dE             d eps       ncg     rms          rms(c)
DAV:   1    -0.114416567936E+03   -0.16430E-03   -0.85949E-04    76   0.161E-01    0.811E-03
RMM:   2    -0.114416569001E+03   -0.10646E-05   -0.12642E-05    44   0.193E-02
 214 F= -.11468495E+03 E0= -.11468495E+03  d E =-.129120E-03
 BRION: g(F)=  0.445E-03 g(S)=  0.000E+00 retain N=  2 mean eig= 1.33
 eig:   1.333  1.333
 bond charge predicted
       N       E                     dE             d eps       ncg     rms          rms(c)
DAV:   1    -0.114417845602E+03   -0.12777E-02   -0.69561E-02    70   0.150E+00    0.612E-02
RMM:   2    -0.114417897402E+03   -0.51799E-04   -0.82276E-04    71   0.155E-01    0.377E-02
RMM:   3    -0.114417920898E+03   -0.23496E-04   -0.12406E-04    71   0.635E-02    0.954E-03
RMM:   4    -0.114417924665E+03   -0.37672E-05   -0.29621E-05    52   0.290E-02
 215 F= -.11468604E+03 E0= -.11468604E+03  d E =-.108701E-02
 BRION: g(F)=  0.314E-03 g(S)=  0.000E+00
 BRIONS problems: POTIM should be increased
 retain N=  1 mean eig=10.30
 eig:  10.295
 reached required accuracy - stopping structural energy minimisation
