<?xml version="1.0" encoding="ISO-8859-1"?>
<modeling>
 <generator>
  <i name="program" type="string">vasp </i>
  <i name="version" type="string">6.3.2  </i>
  <i name="subversion" type="string">27Jun22 (build Oct 05 2023 17:59:42) gamma-only                       parallel </i>
  <i name="platform" type="string">LinuxIFC </i>
  <i name="date" type="string">2024 04 09 </i>
  <i name="time" type="string">10:49:28 </i>
 </generator>
 <incar>
  <i type="string" name="PREC">NORMAL</i>
  <i type="string" name="ALGO">Fast</i>
  <i type="int" name="ISPIN">     1</i>
  <i type="int" name="IBRION">     1</i>
  <i name="EDIFF">      0.00001000</i>
  <i name="EDIFFG">     -0.05000000</i>
  <i type="int" name="NSW">  5000</i>
  <i name="ENCUT">    400.00000000</i>
  <i name="POTIM">      0.10000000</i>
  <i type="int" name="ISMEAR">     0</i>
  <i name="SIGMA">      0.05000000</i>
  <i type="logical" name="LWAVE"> F  </i>
  <i type="logical" name="LCHARG"> F  </i>
  <i type="string" name="GGA">PE</i>
  <i type="int" name="IVDW">    11</i>
  <i name="SPRING">     -5.00000000</i>
 </incar>
 <primitive_cell>
  <structure name="primitive_cell" >
   <crystal>
    <varray name="basis" >
     <v>      15.00000000       0.00000000       0.00000000 </v>
     <v>       0.00000000      15.00000000       0.00000000 </v>
     <v>       0.00000000       0.00000000      15.00000000 </v>
    </varray>
    <i name="volume">   3375.00000000 </i>
    <varray name="rec_basis" >
     <v>       0.06666667       0.00000000       0.00000000 </v>
     <v>       0.00000000       0.06666667       0.00000000 </v>
     <v>       0.00000000       0.00000000       0.06666667 </v>
    </varray>
   </crystal>
   <varray name="positions" >
    <v>       0.38320394       0.53086393       0.59054621 </v>
    <v>       0.39467630       0.43770846       0.60563393 </v>
    <v>       0.47399233       0.39964035       0.62851449 </v>
    <v>       0.44547934       0.59303989       0.61102440 </v>
    <v>       0.53018905       0.53335272       0.47958348 </v>
    <v>       0.53208978       0.44158156       0.47826021 </v>
    <v>       0.60457179       0.58208363       0.51058642 </v>
    <v>       0.46577480       0.38922675       0.43707638 </v>
    <v>       0.34353055       0.39553490       0.57801977 </v>
    <v>       0.53125964       0.43859198       0.64802846 </v>
    <v>       0.48389335       0.32754068       0.62959148 </v>
    <v>       0.32723181       0.55106538       0.54923443 </v>
    <v>       0.50745933       0.57594050       0.64478168 </v>
    <v>       0.43446140       0.66447263       0.60123129 </v>
    <v>       0.48230722       0.56913401       0.43899670 </v>
    <v>       0.58974438       0.40970112       0.50740990 </v>
    <v>       0.66088538       0.62673784       0.54083224 </v>
    <v>       0.40924802       0.34235352       0.41097714 </v>
   </varray>
  </structure>
  <varray name="primitive_index" >
   <v type="int" >        1 </v>
   <v type="int" >        2 </v>
   <v type="int" >        3 </v>
   <v type="int" >        4 </v>
   <v type="int" >        5 </v>
   <v type="int" >        6 </v>
   <v type="int" >        7 </v>
   <v type="int" >        8 </v>
   <v type="int" >        9 </v>
   <v type="int" >       10 </v>
   <v type="int" >       11 </v>
   <v type="int" >       12 </v>
   <v type="int" >       13 </v>
   <v type="int" >       14 </v>
   <v type="int" >       15 </v>
   <v type="int" >       16 </v>
   <v type="int" >       17 </v>
   <v type="int" >       18 </v>
  </varray>
 </primitive_cell>
 <kpoints>
  <generation param="Monkhorst-Pack">
   <v type="int" name="divisions">       1        1        1 </v>
   <v name="usershift">      0.00000000       0.00000000       0.00000000 </v>
   <v name="genvec1">      1.00000000       0.00000000       0.00000000 </v>
   <v name="genvec2">      0.00000000       1.00000000       0.00000000 </v>
   <v name="genvec3">      0.00000000       0.00000000       1.00000000 </v>
   <v name="shift">      0.00000000       0.00000000       0.00000000 </v>
  </generation>
  <varray name="kpointlist" >
   <v>       0.00000000       0.00000000       0.00000000 </v>
  </varray>
  <varray name="weights" >
   <v>       1.00000000 </v>
  </varray>
 </kpoints>
 <parameters>
  <separator name="general" >
   <i type="string" name="SYSTEM">unknown system</i>
   <i type="logical" name="LCOMPAT"> F  </i>
  </separator>
  <separator name="electronic" >
   <i type="string" name="PREC">normal</i>
   <i name="ENMAX">    400.00000000</i>
   <i name="ENAUG">    644.87300000</i>
   <i name="EDIFF">      0.00001000</i>
   <i type="int" name="IALGO">    68</i>
   <i type="int" name="IWAVPR">    11</i>
   <i type="int" name="NBANDS">    35</i>
   <i type="int" name="NBANDSLOW">    -1</i>
   <i type="int" name="NBANDSHIGH">    -1</i>
   <i name="NELECT">     50.00000000</i>
   <i type="int" name="TURBO">     0</i>
   <i type="int" name="IRESTART">     0</i>
   <i type="int" name="NREBOOT">     0</i>
   <i type="int" name="NMIN">     0</i>
   <i name="EREF">      0.00000000</i>
   <separator name="electronic smearing" >
    <i type="int" name="ISMEAR">     0</i>
    <i name="SIGMA">      0.05000000</i>
    <i name="KSPACING">      0.50000000</i>
    <i type="logical" name="KGAMMA"> T  </i>
    <i type="logical" name="KBLOWUP"> T  </i>
   </separator>
   <separator name="electronic projectors" >
    <i type="logical" name="LREAL"> F  </i>
    <v name="ROPT">      0.00000000      0.00000000      0.00000000</v>
    <i type="int" name="LMAXPAW">  -100</i>
    <i type="int" name="LMAXMIX">     2</i>
    <i type="logical" name="NLSPLINE"> F  </i>
   </separator>
   <separator name="electronic startup" >
    <i type="int" name="ISTART">     0</i>
    <i type="int" name="ICHARG">     2</i>
    <i type="int" name="INIWAV">     1</i>
   </separator>
   <separator name="electronic spin" >
    <i type="int" name="ISPIN">     1</i>
    <i type="logical" name="LNONCOLLINEAR"> F  </i>
    <v name="MAGMOM">      1.00000000      1.00000000      1.00000000      1.00000000      1.00000000      1.00000000      1.00000000      1.00000000      1.00000000      1.00000000      1.00000000      1.00000000      1.00000000      1.00000000      1.00000000      1.00000000      1.00000000      1.00000000</v>
    <i name="NUPDOWN">     -1.00000000</i>
    <i type="logical" name="LSORBIT"> F  </i>
    <v name="SAXIS">      0.00000000      0.00000000      1.00000000</v>
    <i type="logical" name="LSPIRAL"> F  </i>
    <v name="QSPIRAL">      0.00000000      0.00000000      0.00000000</v>
    <i type="logical" name="LZEROZ"> F  </i>
   </separator>
   <separator name="electronic exchange-correlation" >
    <i type="logical" name="LASPH"> F  </i>
    <i type="logical" name="LMETAGGA"> F  </i>
   </separator>
   <separator name="electronic convergence" >
    <i type="int" name="NELM">    60</i>
    <i type="int" name="NELMDL">    -5</i>
    <i type="int" name="NELMIN">     2</i>
    <i name="ENINI">    400.00000000</i>
    <separator name="electronic convergence detail" >
     <i type="logical" name="LDIAG"> T  </i>
     <i type="logical" name="LSUBROT"> F  </i>
     <i name="WEIMIN">      0.00100000</i>
     <i name="EBREAK">      0.00000007</i>
     <i name="DEPER">      0.30000000</i>
     <i type="int" name="NRMM">     4</i>
     <i name="TIME">      0.40000000</i>
    </separator>
   </separator>
   <separator name="electronic mixer" >
    <i name="AMIX">      0.40000000</i>
    <i name="BMIX">      1.00000000</i>
    <i name="AMIN">      0.10000000</i>
    <i name="AMIX_MAG">      1.60000000</i>
    <i name="BMIX_MAG">      1.00000000</i>
    <separator name="electronic mixer details" >
     <i type="int" name="IMIX">     4</i>
     <i type="logical" name="MIXFIRST"> F  </i>
     <i type="int" name="MAXMIX">   -45</i>
     <i name="WC">    100.00000000</i>
     <i type="int" name="INIMIX">     1</i>
     <i type="int" name="MIXPRE">     1</i>
     <i type="int" name="MREMOVE">     5</i>
    </separator>
   </separator>
   <separator name="electronic dipolcorrection" >
    <i type="logical" name="LDIPOL"> F  </i>
    <i type="logical" name="LMONO"> F  </i>
    <i type="int" name="IDIPOL">     0</i>
    <i name="EPSILON">      1.00000000</i>
    <v name="DIPOL">   -100.00000000   -100.00000000   -100.00000000</v>
    <i name="EFIELD">      0.00000000</i>
   </separator>
  </separator>
  <separator name="grids" >
   <i type="int" name="NGX">    80</i>
   <i type="int" name="NGY">    80</i>
   <i type="int" name="NGZ">    80</i>
   <i type="int" name="NGXF">   160</i>
   <i type="int" name="NGYF">   160</i>
   <i type="int" name="NGZF">   160</i>
   <i type="logical" name="ADDGRID"> F  </i>
  </separator>
  <separator name="ionic" >
   <i type="int" name="NSW">  5000</i>
   <i type="int" name="IBRION">     1</i>
   <i type="int" name="MDALGO">     0</i>
   <i type="int" name="ISIF">     2</i>
   <i name="PSTRESS">      0.00000000</i>
   <i name="EDIFFG">     -0.05000000</i>
   <i type="int" name="NFREE">     0</i>
   <i name="POTIM">      0.10000000</i>
   <i name="SMASS">     -3.00000000</i>
   <i name="SCALEE">      1.00000000</i>
  </separator>
  <separator name="ionic md" >
   <i name="TEBEG">      0.00010000</i>
   <i name="TEEND">      0.00010000</i>
   <i type="int" name="NBLOCK">     1</i>
   <i type="int" name="KBLOCK">  5000</i>
   <i type="int" name="NPACO">   256</i>
   <i name="APACO">     10.00000000</i>
  </separator>
  <separator name="symmetry" >
   <i type="int" name="ISYM">     2</i>
   <i name="SYMPREC">      0.00001000</i>
  </separator>
  <separator name="dos" >
   <i type="int" name="LORBIT">     0</i>
   <v name="RWIGS">     -1.00000000     -1.00000000     -1.00000000</v>
   <i type="int" name="NEDOS">   301</i>
   <i name="EMIN">     10.00000000</i>
   <i name="EMAX">    -10.00000000</i>
   <i name="EFERMI">      0.00000000</i>
  </separator>
  <separator name="writing" >
   <i type="int" name="NWRITE">     2</i>
   <i type="logical" name="LWAVE"> F  </i>
   <i type="logical" name="LDOWNSAMPLE"> F  </i>
   <i type="logical" name="LCHARG"> F  </i>
   <i type="logical" name="LPARD"> F  </i>
   <i type="logical" name="LVTOT"> F  </i>
   <i type="logical" name="LVHAR"> F  </i>
   <i type="logical" name="LELF"> F  </i>
   <i type="logical" name="LOPTICS"> F  </i>
   <v name="STM">      0.00000000      0.00000000      0.00000000      0.00000000      0.00000000      0.00000000      0.00000000</v>
  </separator>
  <separator name="performance" >
   <i type="int" name="NPAR">     1</i>
   <i type="int" name="NSIM">     4</i>
   <i type="int" name="NBLK">    -1</i>
   <i type="logical" name="LPLANE"> T  </i>
   <i type="logical" name="LSCALAPACK"> T  </i>
   <i type="logical" name="LSCAAWARE"> F  </i>
   <i type="logical" name="LSCALU"> F  </i>
   <i type="logical" name="LASYNC"> F  </i>
   <i type="logical" name="LORBITALREAL"> F  </i>
  </separator>
  <separator name="miscellaneous" >
   <i type="int" name="IDIOT">     3</i>
   <i type="int" name="PHON_NSTRUCT">    -1</i>
   <i type="logical" name="LMUSIC"> F  </i>
   <v name="POMASS">     12.01100000      1.00000000     14.00100000</v>
   <v name="DARWINR">      0.00000000      0.00000000      0.00000000</v>
   <v name="DARWINV">      1.00000000      1.00000000      1.00000000</v>
   <i type="logical" name="LCORR"> T  </i>
  </separator>
  <i type="logical" name="GGA_COMPAT"> T  </i>
  <i type="logical" name="LBERRY"> F  </i>
  <i type="int" name="ICORELEVEL">     0</i>
  <i type="logical" name="LDAU"> F  </i>
  <i type="int" name="I_CONSTRAINED_M">     0</i>
  <separator name="electronic exchange-correlation" >
   <i type="string" name="GGA">PE</i>
   <i type="int" name="VOSKOWN">     0</i>
   <i type="logical" name="LHFCALC"> F  </i>
   <i type="string" name="PRECFOCK"></i>
   <i type="logical" name="LSYMGRAD"> F  </i>
   <i type="logical" name="LHFONE"> F  </i>
   <i type="logical" name="LRHFCALC"> F  </i>
   <i type="logical" name="LTHOMAS"> F  </i>
   <i type="logical" name="LMODELHF"> F  </i>
   <i type="logical" name="LFOCKACE"> F  </i>
   <i name="ENCUT4O">     -1.00000000</i>
   <i type="int" name="EXXOEP">     0</i>
   <i type="int" name="FOURORBIT">     0</i>
   <i name="AEXX">      0.00000000</i>
   <i name="HFALPHA">      0.00000000</i>
   <i name="MCALPHA">      0.00000000</i>
   <i name="ALDAX">      1.00000000</i>
   <i name="AGGAX">      1.00000000</i>
   <i name="ALDAC">      1.00000000</i>
   <i name="AGGAC">      1.00000000</i>
   <i type="int" name="NKREDX">     1</i>
   <i type="int" name="NKREDY">     1</i>
   <i type="int" name="NKREDZ">     1</i>
   <i type="logical" name="SHIFTRED"> F  </i>
   <i type="logical" name="ODDONLY"> F  </i>
   <i type="logical" name="EVENONLY"> F  </i>
   <i type="int" name="LMAXFOCK">     0</i>
   <i type="int" name="NMAXFOCKAE">     0</i>
   <i type="logical" name="LFOCKAEDFT"> F  </i>
   <i name="HFSCREEN">      0.00000000</i>
   <i name="HFSCREENC">      0.00000000</i>
   <i type="int" name="NBANDSGWLOW">     0</i>
  </separator>
  <separator name="vdW DFT" >
   <i type="logical" name="LUSE_VDW"> F  </i>
   <i name="Zab_VDW">     -0.84910000</i>
   <i name="PARAM1">      0.12340000</i>
   <i name="PARAM2">      1.00000000</i>
   <i name="PARAM3">      0.00000000</i>
  </separator>
  <separator name="model GW" >
   <i type="int" name="MODEL_GW">     0</i>
   <i name="MODEL_EPS0">    112.50000000</i>
   <i name="MODEL_ALPHA">      1.00000000</i>
  </separator>
  <separator name="linear response parameters" >
   <i type="logical" name="LEPSILON"> F  </i>
   <i type="logical" name="LRPA"> F  </i>
   <i type="logical" name="LNABLA"> F  </i>
   <i type="logical" name="LVEL"> F  </i>
   <i name="CSHIFT">      0.10000000</i>
   <i name="OMEGAMAX">     -1.00000000</i>
   <i name="DEG_THRESHOLD">      0.00200000</i>
   <i name="RTIME">     -0.10000000</i>
   <i name="WPLASMAI">      0.00000000</i>
   <v name="DFIELD">      0.00000000      0.00000000      0.00000000</v>
   <v name="WPLASMA">      0.00000000      0.00000000      0.00000000      0.00000000      0.00000000      0.00000000      0.00000000      0.00000000      0.00000000</v>
  </separator>
  <separator name="orbital magnetization" >
   <i type="logical" name="NUCIND"> F  </i>
   <v name="MAGPOS">      0.00000000      0.00000000      0.00000000</v>
   <i type="logical" name="LNICSALL"> T  </i>
   <i type="logical" name="ORBITALMAG"> F  </i>
   <i type="logical" name="LMAGBLOCH"> F  </i>
   <i type="logical" name="LCHIMAG"> F  </i>
   <i type="logical" name="LGAUGE"> T  </i>
   <i type="int" name="MAGATOM">     0</i>
   <v name="MAGDIPOL">      0.00000000      0.00000000      0.00000000</v>
   <v name="AVECCONST">      0.00000000      0.00000000      0.00000000</v>
  </separator>
  <separator name="response functions" >
   <i type="logical" name="LFINITE_TEMPERATURE"> F  </i>
   <i type="logical" name="LADDER"> F  </i>
   <i type="logical" name="LRPAFORCE"> F  </i>
   <i type="logical" name="LFXC"> F  </i>
   <i type="logical" name="LHARTREE"> T  </i>
   <i type="int" name="IBSE">     0</i>
   <v type="int" name="KPOINT">    -1     0     0     0</v>
   <i type="logical" name="LTCTC"> F  </i>
   <i type="logical" name="LTCTE"> F  </i>
   <i type="logical" name="LTETE"> F  </i>
   <i type="logical" name="LTRIPLET"> F  </i>
   <i type="logical" name="LFXCEPS"> F  </i>
   <i type="logical" name="LFXHEG"> F  </i>
   <i type="int" name="NATURALO">     2</i>
   <i type="logical" name="LHOLEGF"> F  </i>
   <i type="logical" name="L2ORDER"> F  </i>
   <i type="logical" name="LDMP1"> F  </i>
   <i type="logical" name="LMP2LT"> F  </i>
   <i type="logical" name="LSMP2LT"> F  </i>
   <i type="logical" name="LGWLF"> F  </i>
   <i name="ENCUTGW">     -2.00000000</i>
   <i name="ENCUTGWSOFT">     -2.00000000</i>
   <i name="ENCUTLF">     -1.00000000</i>
   <i type="logical" name="LESF_SPLINES"> F  </i>
   <i type="int" name="LMAXMP2">    -1</i>
   <i name="SCISSOR">      0.00000000</i>
   <i type="int" name="NOMEGA">     0</i>
   <i type="int" name="NOMEGAR">     0</i>
   <i type="int" name="NBANDSGW">    -1</i>
   <i type="int" name="NBANDSO">    -1</i>
   <i type="int" name="NBANDSV">    -1</i>
   <i type="int" name="NELMGW">     1</i>
   <i type="int" name="NELMHF">     1</i>
   <i type="int" name="DIM">     3</i>
   <i type="int" name="IESPILON">     4</i>
   <i type="int" name="ANTIRES">     0</i>
   <i name="OMEGAMAX">    -30.00000000</i>
   <i name="OMEGAMIN">    -30.00000000</i>
   <i name="OMEGATL">   -200.00000000</i>
   <i type="int" name="OMEGAGRID">     0</i>
   <i name="CSHIFT">     -0.10000000</i>
   <i type="logical" name="LSELFENERGY"> F  </i>
   <i type="logical" name="LSPECTRAL"> F  </i>
   <i type="logical" name="LSPECTRALGW"> F  </i>
   <i type="logical" name="LSINGLES"> F  </i>
   <i type="logical" name="LFERMIGW"> F  </i>
   <i type="logical" name="ODDONLYGW"> F  </i>
   <i type="logical" name="EVENONLYGW"> F  </i>
   <i type="int" name="NKREDLFX">     1</i>
   <i type="int" name="NKREDLFY">     1</i>
   <i type="int" name="NKREDLFZ">     1</i>
   <i type="int" name="MAXMEM">  2800</i>
   <i type="int" name="TELESCOPE">     0</i>
   <i type="int" name="NTAUPAR">    -1</i>
   <i type="int" name="NOMEGAPAR">    -1</i>
   <i name="DAMP_NEWTON">      0.80000001</i>
   <i name="LAMBDA">      1.00000000</i>
  </separator>
  <separator name="External order field" >
   <i name="OFIELD_KAPPA">      0.00000000</i>
   <v name="OFIELD_K">      0.00000000      0.00000000      0.00000000</v>
   <i name="OFIELD_Q6_NEAR">      0.00000000</i>
   <i name="OFIELD_Q6_FAR">      0.00000000</i>
   <i name="OFIELD_A">      0.00000000</i>
  </separator>
  <separator name="optional k-points parameters" >
   <i type="int" name="KPOINTS_OPT_MODE">     1</i>
   <i type="logical" name="LKPOINTS_OPT"> F  </i>
  </separator>
 </parameters>
 <atominfo>
  <atoms>      18 </atoms>
  <types>       3 </types>
  <array name="atoms" >
   <dimension dim="1">ion</dimension>
   <field type="string">element</field>
   <field type="int">atomtype</field>
   <set>
    <rc><c>C </c><c>   1</c></rc>
    <rc><c>C </c><c>   1</c></rc>
    <rc><c>C </c><c>   1</c></rc>
    <rc><c>C </c><c>   1</c></rc>
    <rc><c>C </c><c>   1</c></rc>
    <rc><c>C </c><c>   1</c></rc>
    <rc><c>C </c><c>   1</c></rc>
    <rc><c>C </c><c>   1</c></rc>
    <rc><c>H </c><c>   2</c></rc>
    <rc><c>H </c><c>   2</c></rc>
    <rc><c>H </c><c>   2</c></rc>
    <rc><c>H </c><c>   2</c></rc>
    <rc><c>H </c><c>   2</c></rc>
    <rc><c>H </c><c>   2</c></rc>
    <rc><c>H </c><c>   2</c></rc>
    <rc><c>H </c><c>   2</c></rc>
    <rc><c>N </c><c>   3</c></rc>
    <rc><c>N </c><c>   3</c></rc>
   </set>
  </array>
  <array name="atomtypes" >
   <dimension dim="1">type</dimension>
   <field type="int">atomspertype</field>
   <field type="string">element</field>
   <field>mass</field>
   <field>valence</field>
   <field type="string">pseudopotential</field>
   <set>
    <rc><c>   8</c><c>C </c><c>     12.01100000</c><c>      4.00000000</c><c>  PAW_PBE C 08Apr2002                   </c></rc>
    <rc><c>   8</c><c>H </c><c>      1.00000000</c><c>      1.00000000</c><c>  PAW_PBE H 15Jun2001                   </c></rc>
    <rc><c>   2</c><c>N </c><c>     14.00100000</c><c>      5.00000000</c><c>  PAW_PBE N 08Apr2002                   </c></rc>
   </set>
  </array>
 </atominfo>
 <structure name="initialpos" >
  <crystal>
   <varray name="basis" >
    <v>      15.00000000       0.00000000       0.00000000 </v>
    <v>       0.00000000      15.00000000       0.00000000 </v>
    <v>       0.00000000       0.00000000      15.00000000 </v>
   </varray>
   <i name="volume">   3375.00000000 </i>
   <varray name="rec_basis" >
    <v>       0.06666667       0.00000000       0.00000000 </v>
    <v>       0.00000000       0.06666667       0.00000000 </v>
    <v>       0.00000000       0.00000000       0.06666667 </v>
   </varray>
  </crystal>
  <varray name="positions" >
   <v>       0.38320394       0.53086393       0.59054621 </v>
   <v>       0.39467630       0.43770846       0.60563393 </v>
   <v>       0.47399233       0.39964035       0.62851449 </v>
   <v>       0.44547934       0.59303989       0.61102440 </v>
   <v>       0.53018905       0.53335272       0.47958348 </v>
   <v>       0.53208978       0.44158156       0.47826021 </v>
   <v>       0.60457179       0.58208363       0.51058642 </v>
   <v>       0.46577480       0.38922675       0.43707638 </v>
   <v>       0.34353055       0.39553490       0.57801977 </v>
   <v>       0.53125964       0.43859198       0.64802846 </v>
   <v>       0.48389335       0.32754068       0.62959148 </v>
   <v>       0.32723181       0.55106538       0.54923443 </v>
   <v>       0.50745933       0.57594050       0.64478168 </v>
   <v>       0.43446140       0.66447263       0.60123129 </v>
   <v>       0.48230722       0.56913401       0.43899670 </v>
   <v>       0.58974438       0.40970112       0.50740990 </v>
   <v>       0.66088538       0.62673784       0.54083224 </v>
   <v>       0.40924802       0.34235352       0.41097714 </v>
  </varray>
 </structure>
 <calculation>
  <scstep>
   <time name="dav">    3.09    3.17</time>
   <time name="total">    4.53    4.68</time>
   <energy>
    <i name="alphaZ">      3.36120243 </i>
    <i name="ewald">   2997.82998398 </i>
    <i name="hartreedc">  -4246.10365484 </i>
    <i name="XCdc">    159.59377047 </i>
    <i name="pawpsdc">   1295.11405375 </i>
    <i name="pawaedc">  -1302.12229068 </i>
    <i name="eentropy">     -0.00012943 </i>
    <i name="bandstr">   -260.41121907 </i>
    <i name="atom">   1805.79685712 </i>
    <i name="e_fr_energy">    453.05857373 </i>
    <i name="e_wo_entrp">    453.05870317 </i>
    <i name="e_0_energy">    453.05863845 </i>
   </energy>
  </scstep>
  <scstep>
   <time name="dav">    6.42    6.76</time>
   <time name="total">    6.42    6.77</time>
   <energy>
    <i name="e_fr_energy">     71.58462015 </i>
    <i name="e_wo_entrp">     71.58462015 </i>
    <i name="e_0_energy">     71.58462015 </i>
   </energy>
  </scstep>
  <scstep>
   <time name="dav">    3.44    3.70</time>
   <time name="total">    3.44    3.70</time>
   <energy>
    <i name="e_fr_energy">   -106.28782398 </i>
    <i name="e_wo_entrp">   -106.28782398 </i>
    <i name="e_0_energy">   -106.28782398 </i>
   </energy>
  </scstep>
  <scstep>
   <time name="dav">    2.47    2.47</time>
   <time name="total">    2.47    2.47</time>
   <energy>
    <i name="e_fr_energy">   -124.76862820 </i>
    <i name="e_wo_entrp">   -124.76862820 </i>
    <i name="e_0_energy">   -124.76862820 </i>
   </energy>
  </scstep>
  <scstep>
   <time name="dav">    2.66    2.67</time>
   <time name="total">    2.92    2.93</time>
   <energy>
    <i name="e_fr_energy">   -125.16200455 </i>
    <i name="e_wo_entrp">   -125.16200455 </i>
    <i name="e_0_energy">   -125.16200455 </i>
   </energy>
  </scstep>
  <scstep>
   <time name="diag">    0.38    0.38</time>
   <time name="diis">    2.16    2.16</time>
   <time name="orth">    0.01    0.01</time>
   <time name="total">    4.22    4.22</time>
   <energy>
    <i name="e_fr_energy">   -116.04574160 </i>
    <i name="e_wo_entrp">   -116.04574160 </i>
    <i name="e_0_energy">   -116.04574160 </i>
   </energy>
  </scstep>
  <scstep>
   <time name="diag">    0.40    0.40</time>
   <time name="diis">    2.21    2.21</time>
   <time name="orth">    0.01    0.01</time>
   <time name="total">    4.38    4.39</time>
   <energy>
    <i name="e_fr_energy">   -113.87584590 </i>
    <i name="e_wo_entrp">   -113.87584590 </i>
    <i name="e_0_energy">   -113.87584590 </i>
   </energy>
  </scstep>
  <scstep>
   <time name="diag">    0.40    0.40</time>
   <time name="diis">    2.17    2.17</time>
   <time name="orth">    0.01    0.01</time>
   <time name="total">    4.41    4.43</time>
   <energy>
    <i name="e_fr_energy">   -113.74411329 </i>
    <i name="e_wo_entrp">   -113.74411329 </i>
    <i name="e_0_energy">   -113.74411329 </i>
   </energy>
  </scstep>
  <scstep>
   <time name="diag">    0.41    0.41</time>
   <time name="diis">    2.28    2.28</time>
   <time name="orth">    0.01    0.01</time>
   <time name="total">    4.50    4.50</time>
   <energy>
    <i name="e_fr_energy">   -113.68113622 </i>
    <i name="e_wo_entrp">   -113.68113622 </i>
    <i name="e_0_energy">   -113.68113622 </i>
   </energy>
  </scstep>
  <scstep>
   <time name="diag">    0.51    0.51</time>
   <time name="diis">    2.49    2.49</time>
   <time name="orth">    0.01    0.01</time>
   <time name="total">    4.81    4.81</time>
   <energy>
    <i name="e_fr_energy">   -113.69126490 </i>
    <i name="e_wo_entrp">   -113.69126490 </i>
    <i name="e_0_energy">   -113.69126490 </i>
   </energy>
  </scstep>
  <scstep>
   <time name="diag">    0.37    0.37</time>
   <time name="diis">    2.06    2.06</time>
   <time name="orth">    0.01    0.01</time>
   <time name="total">    4.19    4.19</time>
   <energy>
    <i name="e_fr_energy">   -113.70122869 </i>
    <i name="e_wo_entrp">   -113.70122869 </i>
    <i name="e_0_energy">   -113.70122869 </i>
   </energy>
  </scstep>
  <scstep>
   <time name="diag">    0.38    0.38</time>
   <time name="diis">    2.40    2.40</time>
   <time name="orth">    0.01    0.01</time>
   <time name="total">    4.56    4.56</time>
   <energy>
    <i name="e_fr_energy">   -113.70437069 </i>
    <i name="e_wo_entrp">   -113.70437069 </i>
    <i name="e_0_energy">   -113.70437069 </i>
   </energy>
  </scstep>
  <scstep>
   <time name="diag">    0.37    0.37</time>
   <time name="diis">    2.25    2.25</time>
   <time name="orth">    0.01    0.01</time>
   <time name="total">    4.41    4.41</time>
   <energy>
    <i name="e_fr_energy">   -113.71698237 </i>
    <i name="e_wo_entrp">   -113.71698237 </i>
    <i name="e_0_energy">   -113.71698237 </i>
   </energy>
  </scstep>
  <scstep>
   <time name="diag">    0.41    0.41</time>
   <time name="diis">    2.28    2.28</time>
   <time name="orth">    0.01    0.01</time>
   <time name="total">    4.52    4.52</time>
   <energy>
    <i name="e_fr_energy">   -113.71924575 </i>
    <i name="e_wo_entrp">   -113.71924575 </i>
    <i name="e_0_energy">   -113.71924575 </i>
   </energy>
  </scstep>
  <scstep>
   <time name="diag">    0.41    0.41</time>
   <time name="diis">    2.46    2.46</time>
   <time name="orth">    0.01    0.01</time>
   <time name="total">    4.70    4.70</time>
   <energy>
    <i name="e_fr_energy">   -113.72844473 </i>
    <i name="e_wo_entrp">   -113.72844473 </i>
    <i name="e_0_energy">   -113.72844473 </i>
   </energy>
  </scstep>
  <scstep>
   <time name="diag">    0.43    0.43</time>
   <time name="diis">    2.38    2.38</time>
   <time name="orth">    0.01    0.01</time>
   <time name="total">    4.60    4.60</time>
   <energy>
    <i name="e_fr_energy">   -113.73060744 </i>
    <i name="e_wo_entrp">   -113.73060744 </i>
    <i name="e_0_energy">   -113.73060744 </i>
   </energy>
  </scstep>
  <scstep>
   <time name="diag">    0.40    0.40</time>
   <time name="diis">    2.17    2.17</time>
   <time name="orth">    0.01    0.01</time>
   <time name="total">    4.43    4.43</time>
   <energy>
    <i name="e_fr_energy">   -113.73274793 </i>
    <i name="e_wo_entrp">   -113.73274793 </i>
    <i name="e_0_energy">   -113.73274793 </i>
   </energy>
  </scstep>
  <scstep>
   <time name="diag">    0.39    0.39</time>
   <time name="diis">    1.82    1.82</time>
   <time name="orth">    0.01    0.01</time>
   <time name="total">    4.00    4.00</time>
   <energy>
    <i name="e_fr_energy">   -113.73325976 </i>
    <i name="e_wo_entrp">   -113.73325976 </i>
    <i name="e_0_energy">   -113.73325976 </i>
   </energy>
  </scstep>
  <scstep>
   <time name="diag">    0.37    0.37</time>
   <time name="diis">    1.78    1.78</time>
   <time name="orth">    0.01    0.01</time>
   <time name="total">    3.85    3.85</time>
   <energy>
    <i name="e_fr_energy">   -113.73362950 </i>
    <i name="e_wo_entrp">   -113.73362950 </i>
    <i name="e_0_energy">   -113.73362950 </i>
   </energy>
  </scstep>
  <scstep>
   <time name="diag">    0.35    0.35</time>
   <time name="diis">    1.37    1.37</time>
   <time name="orth">    0.01    0.01</time>
   <time name="total">    3.43    3.43</time>
   <energy>
    <i name="e_fr_energy">   -113.73373265 </i>
    <i name="e_wo_entrp">   -113.73373265 </i>
    <i name="e_0_energy">   -113.73373265 </i>
   </energy>
  </scstep>
  <scstep>
   <time name="diag">    0.38    0.38</time>
   <time name="diis">    1.73    1.73</time>
   <time name="orth">    0.01    0.01</time>
   <time name="total">    3.84    3.84</time>
   <energy>
    <i name="e_fr_energy">   -113.73383931 </i>
    <i name="e_wo_entrp">   -113.73383931 </i>
    <i name="e_0_energy">   -113.73383931 </i>
   </energy>
  </scstep>
  <scstep>
   <time name="diag">    0.37    0.37</time>
   <time name="diis">    1.41    1.41</time>
   <time name="orth">    0.01    0.01</time>
   <time name="total">    3.64    3.64</time>
   <energy>
    <i name="e_fr_energy">   -113.73385752 </i>
    <i name="e_wo_entrp">   -113.73385752 </i>
    <i name="e_0_energy">   -113.73385752 </i>
   </energy>
  </scstep>
  <scstep>
   <time name="diag">    0.38    0.38</time>
   <time name="diis">    1.42    1.42</time>
   <time name="orth">    0.01    0.01</time>
   <time name="total">    3.71    3.71</time>
   <energy>
    <i name="e_fr_energy">   -113.73387359 </i>
    <i name="e_wo_entrp">   -113.73387359 </i>
    <i name="e_0_energy">   -113.73387359 </i>
   </energy>
  </scstep>
  <scstep>
   <time name="diag">    0.39    0.39</time>
   <time name="diis">    1.07    1.07</time>
   <time name="orth">    0.01    0.01</time>
   <time name="total">    2.96    2.97</time>
   <energy>
    <i name="alphaZ">      3.36120243 </i>
    <i name="ewald">   2997.82998398 </i>
    <i name="hartreedc">  -4447.37203301 </i>
    <i name="XCdc">    169.85395725 </i>
    <i name="pawpsdc">   4417.05326460 </i>
    <i name="pawaedc">  -4425.43063901 </i>
    <i name="eentropy">     -0.00000000 </i>
    <i name="bandstr">   -634.82647009 </i>
    <i name="atom">   1805.79685712 </i>
    <i name="e_fr_energy">   -113.73387673 </i>
    <i name="e_wo_entrp">   -113.73387673 </i>
    <i name="e_0_energy">   -113.73387673 </i>
   </energy>
  </scstep>
  <structure>
   <crystal>
    <varray name="basis" >
     <v>      15.00000000       0.00000000       0.00000000 </v>
     <v>       0.00000000      15.00000000       0.00000000 </v>
     <v>       0.00000000       0.00000000      15.00000000 </v>
    </varray>
    <i name="volume">   3375.00000000 </i>
    <varray name="rec_basis" >
     <v>       0.06666667       0.00000000       0.00000000 </v>
     <v>       0.00000000       0.06666667       0.00000000 </v>
     <v>       0.00000000       0.00000000       0.06666667 </v>
    </varray>
   </crystal>
   <varray name="positions" >
    <v>       0.38320394       0.53086393       0.59054621 </v>
    <v>       0.39467630       0.43770846       0.60563393 </v>
    <v>       0.47399233       0.39964035       0.62851449 </v>
    <v>       0.44547934       0.59303989       0.61102440 </v>
    <v>       0.53018905       0.53335272       0.47958348 </v>
    <v>       0.53208978       0.44158156       0.47826021 </v>
    <v>       0.60457179       0.58208363       0.51058642 </v>
    <v>       0.46577480       0.38922675       0.43707638 </v>
    <v>       0.34353055       0.39553490       0.57801977 </v>
    <v>       0.53125964       0.43859198       0.64802846 </v>
    <v>       0.48389335       0.32754068       0.62959148 </v>
    <v>       0.32723181       0.55106538       0.54923443 </v>
    <v>       0.50745933       0.57594050       0.64478168 </v>
    <v>       0.43446140       0.66447263       0.60123129 </v>
    <v>       0.48230722       0.56913401       0.43899670 </v>
    <v>       0.58974438       0.40970112       0.50740990 </v>
    <v>       0.66088538       0.62673784       0.54083224 </v>
    <v>       0.40924802       0.34235352       0.41097714 </v>
   </varray>
  </structure>
  <varray name="forces" >
   <v>       0.07272374       0.30361032       0.33467308 </v>
   <v>       0.56938325      -0.21780278      -0.09283857 </v>
   <v>      -0.51535264      -0.18769714       0.11357440 </v>
   <v>      -0.09083351       0.25321978       0.22861842 </v>
   <v>       0.52795309      -0.45417112      -1.09441062 </v>
   <v>       0.25621406       0.75287888      -0.05391458 </v>
   <v>      -0.17971048       0.21259210       0.11127774 </v>
   <v>       0.16335112      -0.13930913       0.09008271 </v>
   <v>      -0.48603019      -0.43843933       0.14790038 </v>
   <v>       0.20768786       0.22682953       0.35997153 </v>
   <v>      -0.17349107       0.01044835       0.03284401 </v>
   <v>      -0.46668163       0.08458872       0.21579489 </v>
   <v>      -0.17135163       0.05673405       0.36372647 </v>
   <v>       0.04781011      -0.13574080      -0.28452368 </v>
   <v>      -0.15321635       0.16106909      -0.01555801 </v>
   <v>       0.22429230      -0.45103085      -0.07898202 </v>
   <v>       0.34528584       0.05311540       0.00939103 </v>
   <v>      -0.17803386      -0.09089506      -0.38762717 </v>
  </varray>
  <varray name="stress" >
   <v>       0.29938254       0.43877580      -0.44817372 </v>
   <v>       0.43877580      -0.23278162       0.06787440 </v>
   <v>      -0.44817372       0.06787440       0.30885179 </v>
  </varray>
  <energy>
   <i name="e_fr_energy">   -114.03036069 </i>
   <i name="e_wo_entrp">   -114.03036069 </i>
   <i name="e_0_energy">   -114.03036069 </i>
  </energy>
  <time name="totalsc">  139.15  140.17</time>
 </calculation>
 <calculation>
  <scstep>
   <time name="dav">    3.58    3.64</time>
   <time name="total">    6.08    6.22</time>
   <energy>
    <i name="alphaZ">      3.36120243 </i>
    <i name="ewald">   2993.53805642 </i>
    <i name="hartreedc">  -4443.75946997 </i>
    <i name="XCdc">    169.81511475 </i>
    <i name="pawpsdc">   4417.06962486 </i>
    <i name="pawaedc">  -4425.44699488 </i>
    <i name="eentropy">     -0.00000000 </i>
    <i name="bandstr">   -634.14660873 </i>
    <i name="atom">   1805.79685712 </i>
    <i name="e_fr_energy">   -113.77221800 </i>
    <i name="e_wo_entrp">   -113.77221800 </i>
    <i name="e_0_energy">   -113.77221800 </i>
   </energy>
  </scstep>
  <scstep>
   <time name="diag">    0.79    0.79</time>
   <time name="diis">    3.40    3.87</time>
   <time name="orth">    0.01    0.02</time>
   <time name="total">    6.47    7.10</time>
   <energy>
    <i name="e_fr_energy">   -113.77245304 </i>
    <i name="e_wo_entrp">   -113.77245304 </i>
    <i name="e_0_energy">   -113.77245304 </i>
   </energy>
  </scstep>
  <scstep>
   <time name="diag">    0.62    0.62</time>
   <time name="diis">    5.14    5.23</time>
   <time name="orth">    0.04    0.05</time>
   <time name="total">    8.40    8.60</time>
   <energy>
    <i name="e_fr_energy">   -113.77232690 </i>
    <i name="e_wo_entrp">   -113.77232690 </i>
    <i name="e_0_energy">   -113.77232690 </i>
   </energy>
  </scstep>
  <scstep>
   <time name="diag">    0.47    0.51</time>
   <time name="diis">    2.45    2.45</time>
   <time name="orth">    0.01    0.01</time>
   <time name="total">    5.77    6.09</time>
   <energy>
    <i name="e_fr_energy">   -113.77239620 </i>
    <i name="e_wo_entrp">   -113.77239620 </i>
    <i name="e_0_energy">   -113.77239620 </i>
   </energy>
  </scstep>
  <scstep>
   <time name="diag">    0.36    0.36</time>
   <time name="diis">    2.01    2.01</time>
   <time name="orth">    0.01    0.01</time>
   <time name="total">    4.13    4.13</time>
   <energy>
    <i name="e_fr_energy">   -113.77241005 </i>
    <i name="e_wo_entrp">   -113.77241005 </i>
    <i name="e_0_energy">   -113.77241005 </i>
   </energy>
  </scstep>
  <scstep>
   <time name="diag">    0.30    0.30</time>
   <time name="diis">    1.37    1.37</time>
   <time name="orth">    0.01    0.01</time>
   <time name="total">    2.98    2.98</time>
   <energy>
    <i name="alphaZ">      3.36120243 </i>
    <i name="ewald">   2993.53805642 </i>
    <i name="hartreedc">  -4443.27368059 </i>
    <i name="XCdc">    169.78906879 </i>
    <i name="pawpsdc">   4409.36847064 </i>
    <i name="pawaedc">  -4417.73691923 </i>
    <i name="eentropy">     -0.00000000 </i>
    <i name="bandstr">   -634.61547098 </i>
    <i name="atom">   1805.79685712 </i>
    <i name="e_fr_energy">   -113.77241541 </i>
    <i name="e_wo_entrp">   -113.77241541 </i>
    <i name="e_0_energy">   -113.77241541 </i>
   </energy>
  </scstep>
  <structure>
   <crystal>
    <varray name="basis" >
     <v>      15.00000000       0.00000000       0.00000000 </v>
     <v>       0.00000000      15.00000000       0.00000000 </v>
     <v>       0.00000000       0.00000000      15.00000000 </v>
    </varray>
    <i name="volume">   3375.00000000 </i>
    <varray name="rec_basis" >
     <v>       0.06666667       0.00000000       0.00000000 </v>
     <v>       0.00000000       0.06666667       0.00000000 </v>
     <v>       0.00000000       0.00000000       0.06666667 </v>
    </varray>
   </crystal>
   <varray name="positions" >
    <v>       0.38324138       0.53104111       0.59069289 </v>
    <v>       0.39501873       0.43756164       0.60554883 </v>
    <v>       0.47364255       0.39952010       0.62860120 </v>
    <v>       0.44542340       0.59318380       0.61109662 </v>
    <v>       0.53052681       0.53311434       0.47906369 </v>
    <v>       0.53229914       0.44210223       0.47837026 </v>
    <v>       0.60452549       0.58226797       0.51072305 </v>
    <v>       0.46599033       0.38916233       0.43716929 </v>
    <v>       0.34322322       0.39523146       0.57805685 </v>
    <v>       0.53134990       0.43872641       0.64837430 </v>
    <v>       0.48376117       0.32754746       0.62963844 </v>
    <v>       0.32696220       0.55110055       0.54924133 </v>
    <v>       0.50731238       0.57598521       0.64502331 </v>
    <v>       0.43449582       0.66436753       0.60095832 </v>
    <v>       0.48220876       0.56927181       0.43915548 </v>
    <v>       0.58994600       0.40948042       0.50749886 </v>
    <v>       0.66122436       0.62683203       0.54081466 </v>
    <v>       0.40927798       0.34231592       0.41068302 </v>
   </varray>
  </structure>
  <varray name="forces" >
   <v>      -0.00906857       0.21612106       0.23304979 </v>
   <v>       0.02716592      -0.13664645      -0.25092490 </v>
   <v>       0.01756343      -0.11840952       0.29834048 </v>
   <v>      -0.09097401       0.17318756       0.28146414 </v>
   <v>       0.52558257       0.05314118      -1.02503699 </v>
   <v>       0.29691632       0.08610645      -0.14682081 </v>
   <v>       0.02984904       0.32465052       0.16923929 </v>
   <v>      -0.08022632      -0.26884300      -0.02325576 </v>
   <v>      -0.29214407      -0.27582637       0.22892002 </v>
   <v>      -0.00837878       0.07332310       0.27727811 </v>
   <v>      -0.17510374      -0.03861184       0.03528626 </v>
   <v>      -0.35101894       0.04829151       0.29120897 </v>
   <v>      -0.16928592       0.06772059       0.34181983 </v>
   <v>       0.03556033      -0.03374281      -0.27966279 </v>
   <v>      -0.11864202       0.11432244      -0.00200556 </v>
   <v>       0.10552175      -0.33465741      -0.11459761 </v>
   <v>       0.10450019      -0.10777764      -0.09230730 </v>
   <v>       0.15218282       0.15765062      -0.22199518 </v>
  </varray>
  <varray name="stress" >
   <v>      -0.05671763       0.06792985      -0.69161594 </v>
   <v>       0.06792985      -0.21929768      -0.05301717 </v>
   <v>      -0.69161594      -0.05301717       0.23126332 </v>
  </varray>
  <energy>
   <i name="e_fr_energy">   -114.06890444 </i>
   <i name="e_wo_entrp">   -114.06890444 </i>
   <i name="e_0_energy">   -114.06890444 </i>
  </energy>
  <time name="totalsc">   54.93   56.22</time>
 </calculation>
 <calculation>
  <scstep>
   <time name="dav">    2.28    2.28</time>
   <time name="total">    4.05    4.05</time>
   <energy>
    <i name="alphaZ">      3.36120243 </i>
    <i name="ewald">   2989.96492480 </i>
    <i name="hartreedc">  -4439.62462670 </i>
    <i name="XCdc">    169.77521042 </i>
    <i name="pawpsdc">   4409.56573215 </i>
    <i name="pawaedc">  -4417.93422251 </i>
    <i name="eentropy">     -0.00000000 </i>
    <i name="bandstr">   -634.70299660 </i>
    <i name="atom">   1805.79685712 </i>
    <i name="e_fr_energy">   -113.79791889 </i>
    <i name="e_wo_entrp">   -113.79791889 </i>
    <i name="e_0_energy">   -113.79791889 </i>
   </energy>
  </scstep>
  <scstep>
   <time name="diag">    0.42    0.42</time>
   <time name="diis">    2.35    2.35</time>
   <time name="orth">    0.01    0.01</time>
   <time name="total">    4.59    4.60</time>
   <energy>
    <i name="e_fr_energy">   -113.79801537 </i>
    <i name="e_wo_entrp">   -113.79801537 </i>
    <i name="e_0_energy">   -113.79801537 </i>
   </energy>
  </scstep>
  <scstep>
   <time name="diag">    0.38    0.38</time>
   <time name="diis">    2.51    2.51</time>
   <time name="orth">    0.01    0.01</time>
   <time name="total">    4.67    4.67</time>
   <energy>
    <i name="e_fr_energy">   -113.79807770 </i>
    <i name="e_wo_entrp">   -113.79807770 </i>
    <i name="e_0_energy">   -113.79807770 </i>
   </energy>
  </scstep>
  <scstep>
   <time name="diag">    0.39    0.39</time>
   <time name="diis">    2.43    2.43</time>
   <time name="orth">    0.01    0.01</time>
   <time name="total">    4.52    4.53</time>
   <energy>
    <i name="e_fr_energy">   -113.79810779 </i>
    <i name="e_wo_entrp">   -113.79810779 </i>
    <i name="e_0_energy">   -113.79810779 </i>
   </energy>
  </scstep>
  <scstep>
   <time name="diag">    0.37    0.37</time>
   <time name="diis">    2.02    2.02</time>
   <time name="orth">    0.01    0.01</time>
   <time name="total">    3.91    3.91</time>
   <energy>
    <i name="alphaZ">      3.36120243 </i>
    <i name="ewald">   2989.96492480 </i>
    <i name="hartreedc">  -4439.71738175 </i>
    <i name="XCdc">    169.78926184 </i>
    <i name="pawpsdc">   4412.57942618 </i>
    <i name="pawaedc">  -4420.95228480 </i>
    <i name="eentropy">     -0.00000000 </i>
    <i name="bandstr">   -634.62012227 </i>
    <i name="atom">   1805.79685712 </i>
    <i name="e_fr_energy">   -113.79811645 </i>
    <i name="e_wo_entrp">   -113.79811645 </i>
    <i name="e_0_energy">   -113.79811645 </i>
   </energy>
  </scstep>
  <structure>
   <crystal>
    <varray name="basis" >
     <v>      15.00000000       0.00000000       0.00000000 </v>
     <v>       0.00000000      15.00000000       0.00000000 </v>
     <v>       0.00000000       0.00000000      15.00000000 </v>
    </varray>
    <i name="volume">   3375.00000000 </i>
    <varray name="rec_basis" >
     <v>       0.06666667       0.00000000       0.00000000 </v>
     <v>       0.00000000       0.06666667       0.00000000 </v>
     <v>       0.00000000       0.00000000       0.06666667 </v>
    </varray>
   </crystal>
   <varray name="positions" >
    <v>       0.38322721       0.53116618       0.59078352 </v>
    <v>       0.39501554       0.43746536       0.60535987 </v>
    <v>       0.47363362       0.39944076       0.62881667 </v>
    <v>       0.44536232       0.59328317       0.61121569 </v>
    <v>       0.53087713       0.53319862       0.47855396 </v>
    <v>       0.53254024       0.44219543       0.47840478 </v>
    <v>       0.60460857       0.58252730       0.51089695 </v>
    <v>       0.46604279       0.38900903       0.43718726 </v>
    <v>       0.34303554       0.39503025       0.57815081 </v>
    <v>       0.53130380       0.43876402       0.64866455 </v>
    <v>       0.48362497       0.32752035       0.62968869 </v>
    <v>       0.32675977       0.55111362       0.54930786 </v>
    <v>       0.50716731       0.57603734       0.64525569 </v>
    <v>       0.43452122       0.66432972       0.60068977 </v>
    <v>       0.48213095       0.56938003       0.43931312 </v>
    <v>       0.59007084       0.40932452       0.50755595 </v>
    <v>       0.66140326       0.62681830       0.54073367 </v>
    <v>       0.40951438       0.34243877       0.41049448 </v>
   </varray>
  </structure>
  <varray name="forces" >
   <v>      -0.06505248       0.13320229       0.17192972 </v>
   <v>       0.06971375      -0.10958143      -0.18759860 </v>
   <v>      -0.05748900      -0.04042820       0.25506294 </v>
   <v>      -0.09874411       0.13266270       0.28282801 </v>
   <v>       0.55796862       0.01447541      -0.89912924 </v>
   <v>       0.22234912       0.02671575      -0.23349253 </v>
   <v>      -0.20732419       0.11074632      -0.01553800 </v>
   <v>       0.27258962       0.04505707       0.13948558 </v>
   <v>      -0.24966473      -0.23681430       0.22756182 </v>
   <v>      -0.02823025       0.05211279       0.26685553 </v>
   <v>      -0.15723529      -0.07153876       0.04603465 </v>
   <v>      -0.29366033       0.04414965       0.32186592 </v>
   <v>      -0.15865434       0.07217822       0.33205113 </v>
   <v>       0.02924956       0.01184023      -0.26546763 </v>
   <v>      -0.12406551       0.12186754      -0.03433076 </v>
   <v>       0.09509883      -0.30447816      -0.11112856 </v>
   <v>       0.30767079       0.06719874       0.03931210 </v>
   <v>      -0.11452006      -0.06936586      -0.33630208 </v>
  </varray>
  <varray name="stress" >
   <v>      -0.02210500       0.16356474      -0.66932399 </v>
   <v>       0.16356475      -0.22435130       0.00786441 </v>
   <v>      -0.66932399       0.00786441       0.24292604 </v>
  </varray>
  <energy>
   <i name="e_fr_energy">   -114.09473230 </i>
   <i name="e_wo_entrp">   -114.09473230 </i>
   <i name="e_0_energy">   -114.09473230 </i>
  </energy>
  <time name="totalsc">   44.79   44.82</time>
 </calculation>
 <calculation>
  <scstep>
   <time name="dav">    2.23    2.23</time>
   <time name="total">    4.00    4.01</time>
   <energy>
    <i name="alphaZ">      3.36120243 </i>
    <i name="ewald">   2981.69186161 </i>
    <i name="hartreedc">  -4432.35299456 </i>
    <i name="XCdc">    169.72363377 </i>
    <i name="pawpsdc">   4412.36208325 </i>
    <i name="pawaedc">  -4420.73498145 </i>
    <i name="eentropy">     -0.00000000 </i>
    <i name="bandstr">   -633.68324788 </i>
    <i name="atom">   1805.79685712 </i>
    <i name="e_fr_energy">   -113.83558570 </i>
    <i name="e_wo_entrp">   -113.83558570 </i>
    <i name="e_0_energy">   -113.83558570 </i>
   </energy>
  </scstep>
  <scstep>
   <time name="diag">    0.39    0.39</time>
   <time name="diis">    2.21    2.21</time>
   <time name="orth">    0.01    0.01</time>
   <time name="total">    4.33    4.34</time>
   <energy>
    <i name="e_fr_energy">   -113.83614435 </i>
    <i name="e_wo_entrp">   -113.83614435 </i>
    <i name="e_0_energy">   -113.83614435 </i>
   </energy>
  </scstep>
  <scstep>
   <time name="diag">    0.37    0.37</time>
   <time name="diis">    2.32    2.32</time>
   <time name="orth">    0.01    0.01</time>
   <time name="total">    4.48    4.49</time>
   <energy>
    <i name="e_fr_energy">   -113.83633287 </i>
    <i name="e_wo_entrp">   -113.83633287 </i>
    <i name="e_0_energy">   -113.83633287 </i>
   </energy>
  </scstep>
  <scstep>
   <time name="diag">    0.48    0.48</time>
   <time name="diis">    2.57    2.58</time>
   <time name="orth">    0.01    0.01</time>
   <time name="total">    4.77    4.77</time>
   <energy>
    <i name="e_fr_energy">   -113.83640937 </i>
    <i name="e_wo_entrp">   -113.83640937 </i>
    <i name="e_0_energy">   -113.83640937 </i>
   </energy>
  </scstep>
  <scstep>
   <time name="diag">    0.40    0.40</time>
   <time name="diis">    2.54    2.54</time>
   <time name="orth">    0.01    0.01</time>
   <time name="total">    5.00    5.01</time>
   <energy>
    <i name="e_fr_energy">   -113.83643365 </i>
    <i name="e_wo_entrp">   -113.83643365 </i>
    <i name="e_0_energy">   -113.83643365 </i>
   </energy>
  </scstep>
  <scstep>
   <time name="diag">    0.38    0.38</time>
   <time name="diis">    1.68    1.68</time>
   <time name="orth">    0.01    0.01</time>
   <time name="total">    3.79    3.79</time>
   <energy>
    <i name="e_fr_energy">   -113.83644486 </i>
    <i name="e_wo_entrp">   -113.83644486 </i>
    <i name="e_0_energy">   -113.83644486 </i>
   </energy>
  </scstep>
  <scstep>
   <time name="diag">    0.39    0.39</time>
   <time name="diis">    1.34    1.34</time>
   <time name="orth">    0.01    0.01</time>
   <time name="total">    3.14    3.15</time>
   <energy>
    <i name="alphaZ">      3.36120243 </i>
    <i name="ewald">   2981.69186161 </i>
    <i name="hartreedc">  -4431.69417745 </i>
    <i name="XCdc">    169.69920303 </i>
    <i name="pawpsdc">   4396.45041025 </i>
    <i name="pawaedc">  -4404.81256055 </i>
    <i name="eentropy">     -0.00000000 </i>
    <i name="bandstr">   -634.32924865 </i>
    <i name="atom">   1805.79685712 </i>
    <i name="e_fr_energy">   -113.83645220 </i>
    <i name="e_wo_entrp">   -113.83645220 </i>
    <i name="e_0_energy">   -113.83645220 </i>
   </energy>
  </scstep>
  <structure>
   <crystal>
    <varray name="basis" >
     <v>      15.00000000       0.00000000       0.00000000 </v>
     <v>       0.00000000      15.00000000       0.00000000 </v>
     <v>       0.00000000       0.00000000      15.00000000 </v>
    </varray>
    <i name="volume">   3375.00000000 </i>
    <varray name="rec_basis" >
     <v>       0.06666667       0.00000000       0.00000000 </v>
     <v>       0.00000000       0.06666667       0.00000000 </v>
     <v>       0.00000000       0.00000000       0.06666667 </v>
    </varray>
   </crystal>
   <varray name="positions" >
    <v>       0.38316239       0.53132711       0.59090519 </v>
    <v>       0.39504418       0.43731641       0.60507752 </v>
    <v>       0.47356295       0.39935802       0.62916490 </v>
    <v>       0.44524735       0.59343047       0.61143518 </v>
    <v>       0.53151866       0.53331174       0.47772975 </v>
    <v>       0.53290613       0.44231289       0.47838491 </v>
    <v>       0.60457276       0.58282152       0.51106155 </v>
    <v>       0.46638314       0.38896814       0.43733559 </v>
    <v>       0.34273707       0.39470876       0.57831900 </v>
    <v>       0.53121247       0.43881560       0.64915446 </v>
    <v>       0.48340040       0.32744782       0.62978360 </v>
    <v>       0.32644396       0.55113490       0.54945949 </v>
    <v>       0.50692473       0.57613103       0.64565517 </v>
    <v>       0.43455997       0.66429945       0.60023797 </v>
    <v>       0.48199095       0.56957240       0.43954919 </v>
    <v>       0.59027746       0.40906606       0.50764517 </v>
    <v>       0.66185429       0.62691689       0.54069153 </v>
    <v>       0.40971961       0.34248539       0.41008432 </v>
   </varray>
  </structure>
  <varray name="forces" >
   <v>      -0.09659416       0.04031014       0.10527529 </v>
   <v>       0.05747509      -0.06542526      -0.11435080 </v>
   <v>      -0.10185662       0.01461163       0.21210766 </v>
   <v>      -0.13451323       0.07323830       0.27041067 </v>
   <v>       0.47485524      -0.04483010      -0.76436813 </v>
   <v>       0.24330132      -0.00076048      -0.28031285 </v>
   <v>       0.06584344       0.25619982       0.02566719 </v>
   <v>      -0.01853584      -0.15449399      -0.02977491 </v>
   <v>      -0.17147514      -0.17099047       0.22900276 </v>
   <v>      -0.06365047       0.01938450       0.24613798 </v>
   <v>      -0.13783519      -0.08540345       0.06205527 </v>
   <v>      -0.22682317       0.04084660       0.34985252 </v>
   <v>      -0.14371149       0.07764907       0.31560863 </v>
   <v>       0.02159802       0.05938432      -0.23895182 </v>
   <v>      -0.10245194       0.10597542      -0.06124733 </v>
   <v>       0.06960566      -0.24910132      -0.11050003 </v>
   <v>       0.08174370      -0.07858025      -0.03981578 </v>
   <v>       0.18302479       0.16198551      -0.17679632 </v>
  </varray>
  <varray name="stress" >
   <v>      -0.33920081      -0.01849182      -0.81857881 </v>
   <v>      -0.01849182      -0.49154646      -0.05162532 </v>
   <v>      -0.81857881      -0.05162533       0.17618878 </v>
  </varray>
  <energy>
   <i name="e_fr_energy">   -114.13314585 </i>
   <i name="e_wo_entrp">   -114.13314585 </i>
   <i name="e_0_energy">   -114.13314585 </i>
  </energy>
  <time name="totalsc">   70.23   71.36</time>
 </calculation>
 <calculation>
  <scstep>
   <time name="dav">    4.17    4.24</time>
   <time name="total">    6.40    6.53</time>
   <energy>
    <i name="alphaZ">      3.36120243 </i>
    <i name="ewald">   2964.31655490 </i>
    <i name="hartreedc">  -4415.49544180 </i>
    <i name="XCdc">    169.58263847 </i>
    <i name="pawpsdc">   4396.30110704 </i>
    <i name="pawaedc">  -4404.66318061 </i>
    <i name="eentropy">     -0.00000000 </i>
    <i name="bandstr">   -633.10136694 </i>
    <i name="atom">   1805.79685712 </i>
    <i name="e_fr_energy">   -113.90162939 </i>
    <i name="e_wo_entrp">   -113.90162939 </i>
    <i name="e_0_energy">   -113.90162939 </i>
   </energy>
  </scstep>
  <scstep>
   <time name="diag">    0.87    1.00</time>
   <time name="diis">    3.81    4.13</time>
   <time name="orth">    0.04    0.08</time>
   <time name="total">    7.79    8.45</time>
   <energy>
    <i name="e_fr_energy">   -113.90576778 </i>
    <i name="e_wo_entrp">   -113.90576778 </i>
    <i name="e_0_energy">   -113.90576778 </i>
   </energy>
  </scstep>
  <scstep>
   <time name="diag">    0.73    0.73</time>
   <time name="diis">    3.77    3.83</time>
   <time name="orth">    0.03    0.03</time>
   <time name="total">    7.38    7.48</time>
   <energy>
    <i name="e_fr_energy">   -113.90668643 </i>
    <i name="e_wo_entrp">   -113.90668643 </i>
    <i name="e_0_energy">   -113.90668643 </i>
   </energy>
  </scstep>
  <scstep>
   <time name="diag">    0.57    0.57</time>
   <time name="diis">    3.40    3.44</time>
   <time name="orth">    0.02    0.05</time>
   <time name="total">    6.77    6.98</time>
   <energy>
    <i name="e_fr_energy">   -113.90713004 </i>
    <i name="e_wo_entrp">   -113.90713004 </i>
    <i name="e_0_energy">   -113.90713004 </i>
   </energy>
  </scstep>
  <scstep>
   <time name="diag">    0.67    0.67</time>
   <time name="diis">    3.12    3.17</time>
   <time name="orth">    0.01    0.01</time>
   <time name="total">    5.88    6.08</time>
   <energy>
    <i name="e_fr_energy">   -113.90721682 </i>
    <i name="e_wo_entrp">   -113.90721682 </i>
    <i name="e_0_energy">   -113.90721682 </i>
   </energy>
  </scstep>
  <scstep>
   <time name="diag">    0.42    0.42</time>
   <time name="diis">    3.67    3.85</time>
   <time name="orth">    0.02    0.02</time>
   <time name="total">    6.21    6.49</time>
   <energy>
    <i name="e_fr_energy">   -113.90725588 </i>
    <i name="e_wo_entrp">   -113.90725588 </i>
    <i name="e_0_energy">   -113.90725588 </i>
   </energy>
  </scstep>
  <scstep>
   <time name="diag">    0.48    0.48</time>
   <time name="diis">    2.28    2.30</time>
   <time name="orth">    0.01    0.01</time>
   <time name="total">    4.70    4.75</time>
   <energy>
    <i name="e_fr_energy">   -113.90727405 </i>
    <i name="e_wo_entrp">   -113.90727405 </i>
    <i name="e_0_energy">   -113.90727405 </i>
   </energy>
  </scstep>
  <scstep>
   <time name="diag">    0.89    0.89</time>
   <time name="diis">    2.63    2.75</time>
   <time name="orth">    0.02    0.02</time>
   <time name="total">    5.71    5.99</time>
   <energy>
    <i name="e_fr_energy">   -113.90729310 </i>
    <i name="e_wo_entrp">   -113.90729310 </i>
    <i name="e_0_energy">   -113.90729310 </i>
   </energy>
  </scstep>
  <scstep>
   <time name="diag">    0.45    0.46</time>
   <time name="diis">    1.38    1.40</time>
   <time name="orth">    0.01    0.01</time>
   <time name="total">    4.10    4.13</time>
   <energy>
    <i name="e_fr_energy">   -113.90730892 </i>
    <i name="e_wo_entrp">   -113.90730892 </i>
    <i name="e_0_energy">   -113.90730892 </i>
   </energy>
  </scstep>
  <scstep>
   <time name="diag">    0.35    0.45</time>
   <time name="diis">    0.95    0.96</time>
   <time name="orth">    0.01    0.01</time>
   <time name="total">    3.02    3.18</time>
   <energy>
    <i name="alphaZ">      3.36120243 </i>
    <i name="ewald">   2964.31655490 </i>
    <i name="hartreedc">  -4414.66699137 </i>
    <i name="XCdc">    169.56225558 </i>
    <i name="pawpsdc">   4378.33743065 </i>
    <i name="pawaedc">  -4386.68988898 </i>
    <i name="eentropy">     -0.00000000 </i>
    <i name="bandstr">   -633.92473812 </i>
    <i name="atom">   1805.79685712 </i>
    <i name="e_fr_energy">   -113.90731779 </i>
    <i name="e_wo_entrp">   -113.90731779 </i>
    <i name="e_0_energy">   -113.90731779 </i>
   </energy>
  </scstep>
  <structure>
   <crystal>
    <varray name="basis" >
     <v>      15.00000000       0.00000000       0.00000000 </v>
     <v>       0.00000000      15.00000000       0.00000000 </v>
     <v>       0.00000000       0.00000000      15.00000000 </v>
    </varray>
    <i name="volume">   3375.00000000 </i>
    <varray name="rec_basis" >
     <v>       0.06666667       0.00000000       0.00000000 </v>
     <v>       0.00000000       0.06666667       0.00000000 </v>
     <v>       0.00000000       0.00000000       0.06666667 </v>
    </varray>
   </crystal>
   <varray name="positions" >
    <v>       0.38292020       0.53157107       0.59110972 </v>
    <v>       0.39513299       0.43700836       0.60449199 </v>
    <v>       0.47327332       0.39926395       0.62998822 </v>
    <v>       0.44488856       0.59371187       0.61201151 </v>
    <v>       0.53309290       0.53348333       0.47580001 </v>
    <v>       0.53383675       0.44253880       0.47817642 </v>
    <v>       0.60470858       0.58365699       0.51142906 </v>
    <v>       0.46703298       0.38875674       0.43757042 </v>
    <v>       0.34209732       0.39399801       0.57876570 </v>
    <v>       0.53092366       0.43889391       0.65036106 </v>
    <v>       0.48285845       0.32721932       0.63005639 </v>
    <v>       0.32574607       0.55118601       0.54993894 </v>
    <v>       0.50633301       0.57638128       0.64665938 </v>
    <v>       0.43464282       0.66432078       0.59913324 </v>
    <v>       0.48165736       0.57004590       0.44006432 </v>
    <v>       0.59076081       0.40847444       0.50784689 </v>
    <v>       0.66279449       0.62705536       0.54055612 </v>
    <v>       0.41048501       0.34279572       0.40919088 </v>
   </varray>
  </structure>
  <varray name="forces" >
   <v>      -0.05967939      -0.07055261       0.03347924 </v>
   <v>      -0.07597150       0.01216412       0.01915337 </v>
   <v>      -0.08950328      -0.00334442       0.14434151 </v>
   <v>      -0.23292870      -0.00640520       0.20526324 </v>
   <v>       0.27978142      -0.04639468      -0.48337807 </v>
   <v>       0.24789009      -0.08570532      -0.38662714 </v>
   <v>       0.15584504       0.15723311      -0.14429548 </v>
   <v>       0.02167174      -0.03721619      -0.08447108 </v>
   <v>       0.00436448      -0.02900839       0.22867725 </v>
   <v>      -0.13698362      -0.04292649       0.19690709 </v>
   <v>      -0.11236676      -0.03440748       0.09847410 </v>
   <v>      -0.13667121       0.04162269       0.36051664 </v>
   <v>      -0.12781129       0.08717024       0.27018267 </v>
   <v>       0.00836085       0.08266954      -0.16141299 </v>
   <v>       0.02389225       0.01517262      -0.07230197 </v>
   <v>       0.01559475      -0.13366800      -0.11542580 </v>
   <v>       0.00467715      -0.06420829       0.00615759 </v>
   <v>       0.20983797       0.15780474      -0.11524016 </v>
  </varray>
  <varray name="stress" >
   <v>      -0.68623629      -0.15880783      -0.96361093 </v>
   <v>      -0.15880783      -0.91653738      -0.05379259 </v>
   <v>      -0.96361094      -0.05379259       0.08785849 </v>
  </varray>
  <energy>
   <i name="e_fr_energy">   -114.20422638 </i>
   <i name="e_wo_entrp">   -114.20422638 </i>
   <i name="e_0_energy">   -114.20422638 </i>
  </energy>
  <time name="totalsc">   77.08   79.63</time>
 </calculation>
 <calculation>
  <scstep>
   <time name="dav">    3.39    3.55</time>
   <time name="total">    6.15    6.38</time>
   <energy>
    <i name="alphaZ">      3.36120243 </i>
    <i name="ewald">   2965.02704083 </i>
    <i name="hartreedc">  -4414.98767838 </i>
    <i name="XCdc">    169.58020646 </i>
    <i name="pawpsdc">   4378.22372278 </i>
    <i name="pawaedc">  -4386.57619151 </i>
    <i name="eentropy">     -0.00000000 </i>
    <i name="bandstr">   -634.33651952 </i>
    <i name="atom">   1805.79685712 </i>
    <i name="e_fr_energy">   -113.91135978 </i>
    <i name="e_wo_entrp">   -113.91135978 </i>
    <i name="e_0_energy">   -113.91135978 </i>
   </energy>
  </scstep>
  <scstep>
   <time name="diag">    0.38    0.38</time>
   <time name="diis">    3.43    3.44</time>
   <time name="orth">    0.02    0.03</time>
   <time name="total">    5.88    5.90</time>
   <energy>
    <i name="e_fr_energy">   -113.91149736 </i>
    <i name="e_wo_entrp">   -113.91149736 </i>
    <i name="e_0_energy">   -113.91149736 </i>
   </energy>
  </scstep>
  <scstep>
   <time name="diag">    0.57    0.59</time>
   <time name="diis">    4.46    4.49</time>
   <time name="orth">    0.03    0.04</time>
   <time name="total">    7.73    7.81</time>
   <energy>
    <i name="e_fr_energy">   -113.91157731 </i>
    <i name="e_wo_entrp">   -113.91157731 </i>
    <i name="e_0_energy">   -113.91157731 </i>
   </energy>
  </scstep>
  <scstep>
   <time name="diag">    0.49    0.50</time>
   <time name="diis">    2.52    2.54</time>
   <time name="orth">    0.01    0.02</time>
   <time name="total">    5.39    5.48</time>
   <energy>
    <i name="e_fr_energy">   -113.91159384 </i>
    <i name="e_wo_entrp">   -113.91159384 </i>
    <i name="e_0_energy">   -113.91159384 </i>
   </energy>
  </scstep>
  <scstep>
   <time name="diag">    0.21    0.23</time>
   <time name="diis">    1.51    1.52</time>
   <time name="orth">    0.01    0.01</time>
   <time name="total">    2.62    2.64</time>
   <energy>
    <i name="alphaZ">      3.36120243 </i>
    <i name="ewald">   2965.02704083 </i>
    <i name="hartreedc">  -4415.28299396 </i>
    <i name="XCdc">    169.59527916 </i>
    <i name="pawpsdc">   4385.44706434 </i>
    <i name="pawaedc">  -4393.80489862 </i>
    <i name="eentropy">     -0.00000000 </i>
    <i name="bandstr">   -634.05114800 </i>
    <i name="atom">   1805.79685712 </i>
    <i name="e_fr_energy">   -113.91159670 </i>
    <i name="e_wo_entrp">   -113.91159670 </i>
    <i name="e_0_energy">   -113.91159670 </i>
   </energy>
  </scstep>
  <structure>
   <crystal>
    <varray name="basis" >
     <v>      15.00000000       0.00000000       0.00000000 </v>
     <v>       0.00000000      15.00000000       0.00000000 </v>
     <v>       0.00000000       0.00000000      15.00000000 </v>
    </varray>
    <i name="volume">   3375.00000000 </i>
    <varray name="rec_basis" >
     <v>       0.06666667       0.00000000       0.00000000 </v>
     <v>       0.00000000       0.06666667       0.00000000 </v>
     <v>       0.00000000       0.00000000       0.06666667 </v>
    </varray>
   </crystal>
   <varray name="positions" >
    <v>       0.38292568       0.53153488       0.59118730 </v>
    <v>       0.39512657       0.43705825       0.60459614 </v>
    <v>       0.47330227       0.39928751       0.62990983 </v>
    <v>       0.44484482       0.59369371       0.61212259 </v>
    <v>       0.53302126       0.53337454       0.47558412 </v>
    <v>       0.53375718       0.44241630       0.47785319 </v>
    <v>       0.60467276       0.58356278       0.51122341 </v>
    <v>       0.46681561       0.38872482       0.43745177 </v>
    <v>       0.34215673       0.39408291       0.57891184 </v>
    <v>       0.53095966       0.43888229       0.65016033 </v>
    <v>       0.48290585       0.32723125       0.63001834 </v>
    <v>       0.32571957       0.55122973       0.55023596 </v>
    <v>       0.50638885       0.57638359       0.64665989 </v>
    <v>       0.43464032       0.66437540       0.59930715 </v>
    <v>       0.48169130       0.56995450       0.43974098 </v>
    <v>       0.59062513       0.40838488       0.50757843 </v>
    <v>       0.66253483       0.62692357       0.54059276 </v>
    <v>       0.41028637       0.34280517       0.40929861 </v>
   </varray>
  </structure>
  <varray name="forces" >
   <v>      -0.04488839      -0.03205059       0.05540892 </v>
   <v>      -0.04232210      -0.01330133       0.01710767 </v>
   <v>      -0.09708403      -0.02377176       0.14844731 </v>
   <v>      -0.20410207       0.02530756       0.20318363 </v>
   <v>       0.30080497      -0.05062703      -0.49105547 </v>
   <v>       0.24191694      -0.03837983      -0.36639926 </v>
   <v>       0.01665328       0.05774894      -0.19340137 </v>
   <v>       0.15451816       0.05954316      -0.02135904 </v>
   <v>      -0.02941031      -0.05377408       0.21776927 </v>
   <v>      -0.11727844      -0.02945559       0.20263636 </v>
   <v>      -0.11719096      -0.02802399       0.09625229 </v>
   <v>      -0.16421483       0.04467439       0.33561904 </v>
   <v>      -0.13893163       0.08609232       0.26453447 </v>
   <v>       0.00514080       0.05459297      -0.15895375 </v>
   <v>       0.01272998       0.01979013      -0.06780793 </v>
   <v>       0.02779518      -0.14729031      -0.11060409 </v>
   <v>       0.12955534       0.02469021       0.05808729 </v>
   <v>       0.06630810       0.04423484      -0.18946534 </v>
  </varray>
  <varray name="stress" >
   <v>      -0.54711725      -0.06548862      -0.87781019 </v>
   <v>      -0.06548861      -0.82813908      -0.01307319 </v>
   <v>      -0.87781019      -0.01307319       0.11684708 </v>
  </varray>
  <energy>
   <i name="e_fr_energy">   -114.20861327 </i>
   <i name="e_wo_entrp">   -114.20861327 </i>
   <i name="e_0_energy">   -114.20861327 </i>
  </energy>
  <time name="totalsc">   38.35   38.81</time>
 </calculation>
 <calculation>
  <scstep>
   <time name="dav">    4.49    4.49</time>
   <time name="total">    7.69    7.69</time>
   <energy>
    <i name="alphaZ">      3.36120243 </i>
    <i name="ewald">   2958.86061461 </i>
    <i name="hartreedc">  -4409.74215839 </i>
    <i name="XCdc">    169.55454906 </i>
    <i name="pawpsdc">   4385.89273818 </i>
    <i name="pawaedc">  -4394.25047708 </i>
    <i name="eentropy">     -0.00000000 </i>
    <i name="bandstr">   -633.40546741 </i>
    <i name="atom">   1805.79685712 </i>
    <i name="e_fr_energy">   -113.93214148 </i>
    <i name="e_wo_entrp">   -113.93214148 </i>
    <i name="e_0_energy">   -113.93214148 </i>
   </energy>
  </scstep>
  <scstep>
   <time name="diag">    0.88    0.88</time>
   <time name="diis">    4.67    4.67</time>
   <time name="orth">    0.03    0.03</time>
   <time name="total">    8.97    8.99</time>
   <energy>
    <i name="e_fr_energy">   -113.93281488 </i>
    <i name="e_wo_entrp">   -113.93281488 </i>
    <i name="e_0_energy">   -113.93281488 </i>
   </energy>
  </scstep>
  <scstep>
   <time name="diag">    0.60    0.60</time>
   <time name="diis">    2.00    2.00</time>
   <time name="orth">    0.01    0.01</time>
   <time name="total">    5.73    5.74</time>
   <energy>
    <i name="e_fr_energy">   -113.93297169 </i>
    <i name="e_wo_entrp">   -113.93297169 </i>
    <i name="e_0_energy">   -113.93297169 </i>
   </energy>
  </scstep>
  <scstep>
   <time name="diag">    0.30    0.30</time>
   <time name="diis">    1.40    1.40</time>
   <time name="orth">    0.01    0.01</time>
   <time name="total">    3.47    3.47</time>
   <energy>
    <i name="e_fr_energy">   -113.93309349 </i>
    <i name="e_wo_entrp">   -113.93309349 </i>
    <i name="e_0_energy">   -113.93309349 </i>
   </energy>
  </scstep>
  <scstep>
   <time name="diag">    0.24    0.24</time>
   <time name="diis">    1.49    1.49</time>
   <time name="orth">    0.01    0.01</time>
   <time name="total">    3.39    3.39</time>
   <energy>
    <i name="e_fr_energy">   -113.93311510 </i>
    <i name="e_wo_entrp">   -113.93311510 </i>
    <i name="e_0_energy">   -113.93311510 </i>
   </energy>
  </scstep>
  <scstep>
   <time name="diag">    0.38    0.60</time>
   <time name="diis">    1.58    1.77</time>
   <time name="orth">    0.01    0.01</time>
   <time name="total">    3.59    4.13</time>
   <energy>
    <i name="alphaZ">      3.36120243 </i>
    <i name="ewald">   2958.86061461 </i>
    <i name="hartreedc">  -4409.26299106 </i>
    <i name="XCdc">    169.53052174 </i>
    <i name="pawpsdc">   4375.37951562 </i>
    <i name="pawaedc">  -4383.72608418 </i>
    <i name="eentropy">     -0.00000000 </i>
    <i name="bandstr">   -633.87275751 </i>
    <i name="atom">   1805.79685712 </i>
    <i name="e_fr_energy">   -113.93312123 </i>
    <i name="e_wo_entrp">   -113.93312123 </i>
    <i name="e_0_energy">   -113.93312123 </i>
   </energy>
  </scstep>
  <structure>
   <crystal>
    <varray name="basis" >
     <v>      15.00000000       0.00000000       0.00000000 </v>
     <v>       0.00000000      15.00000000       0.00000000 </v>
     <v>       0.00000000       0.00000000      15.00000000 </v>
    </varray>
    <i name="volume">   3375.00000000 </i>
    <varray name="rec_basis" >
     <v>       0.06666667       0.00000000       0.00000000 </v>
     <v>       0.00000000       0.06666667       0.00000000 </v>
     <v>       0.00000000       0.00000000       0.06666667 </v>
    </varray>
   </crystal>
   <varray name="positions" >
    <v>       0.38291162       0.53157232       0.59149019 </v>
    <v>       0.39517926       0.43706802       0.60472020 </v>
    <v>       0.47329937       0.39927968       0.62992061 </v>
    <v>       0.44467650       0.59377618       0.61256378 </v>
    <v>       0.53327096       0.53312598       0.47448956 </v>
    <v>       0.53378336       0.44223038       0.47696547 </v>
    <v>       0.60436086       0.58334141       0.51067302 </v>
    <v>       0.46665036       0.38876628       0.43730826 </v>
    <v>       0.34209688       0.39408542       0.57940403 </v>
    <v>       0.53101219       0.43889485       0.64994494 </v>
    <v>       0.48288241       0.32722479       0.62998421 </v>
    <v>       0.32541529       0.55136739       0.55111024 </v>
    <v>       0.50636142       0.57645511       0.64691815 </v>
    <v>       0.43464965       0.66447426       0.59949028 </v>
    <v>       0.48168764       0.56983340       0.43902067 </v>
    <v>       0.59040762       0.40796806       0.50692060 </v>
    <v>       0.66230706       0.62676767       0.54075726 </v>
    <v>       0.40969355       0.34270279       0.40922051 </v>
   </varray>
  </structure>
  <varray name="forces" >
   <v>      -0.03417644      -0.00466162       0.06362321 </v>
   <v>      -0.04107761      -0.02026112       0.03074884 </v>
   <v>      -0.07321546      -0.03881629       0.15969905 </v>
   <v>      -0.16717806       0.04638773       0.18777923 </v>
   <v>       0.19428332      -0.04236141      -0.48570480 </v>
   <v>       0.31672063       0.00360926      -0.29836868 </v>
   <v>       0.54595015       0.41828500       0.06684560 </v>
   <v>      -0.38168228      -0.37440493      -0.32711597 </v>
   <v>      -0.04471745      -0.05952053       0.20051764 </v>
   <v>      -0.10618282      -0.02882951       0.19617241 </v>
   <v>      -0.11667330      -0.02940507       0.10013413 </v>
   <v>      -0.17480294       0.04538396       0.30215346 </v>
   <v>      -0.14534164       0.08748831       0.24598128 </v>
   <v>      -0.00760922       0.03564841      -0.13857546 </v>
   <v>       0.02142165      -0.00184617      -0.05903885 </v>
   <v>       0.03404617      -0.12932301      -0.10362858 </v>
   <v>      -0.31606186      -0.29943435      -0.17408053 </v>
   <v>       0.49629716       0.39206135       0.03285801 </v>
  </varray>
  <varray name="stress" >
   <v>      -0.80339642      -0.27022854      -0.96442353 </v>
   <v>      -0.27022855      -0.96500470      -0.10716840 </v>
   <v>      -0.96442353      -0.10716840       0.04683932 </v>
  </varray>
  <energy>
   <i name="e_fr_energy">   -114.23031867 </i>
   <i name="e_wo_entrp">   -114.23031867 </i>
   <i name="e_0_energy">   -114.23031867 </i>
  </energy>
  <time name="totalsc">   42.81   43.43</time>
 </calculation>
 <calculation>
  <scstep>
   <time name="dav">    3.15    3.61</time>
   <time name="total">    5.32    5.78</time>
   <energy>
    <i name="alphaZ">      3.36120243 </i>
    <i name="ewald">   2951.91819584 </i>
    <i name="hartreedc">  -4401.56095154 </i>
    <i name="XCdc">    169.53190623 </i>
    <i name="pawpsdc">   4375.00225517 </i>
    <i name="pawaedc">  -4383.34875989 </i>
    <i name="eentropy">     -0.00000000 </i>
    <i name="bandstr">   -634.67215885 </i>
    <i name="atom">   1805.79685712 </i>
    <i name="e_fr_energy">   -113.97145349 </i>
    <i name="e_wo_entrp">   -113.97145349 </i>
    <i name="e_0_energy">   -113.97145349 </i>
   </energy>
  </scstep>
  <scstep>
   <time name="diag">    0.50    0.50</time>
   <time name="diis">    3.41    3.41</time>
   <time name="orth">    0.02    0.04</time>
   <time name="total">    6.38    6.48</time>
   <energy>
    <i name="e_fr_energy">   -113.97377429 </i>
    <i name="e_wo_entrp">   -113.97377429 </i>
    <i name="e_0_energy">   -113.97377429 </i>
   </energy>
  </scstep>
  <scstep>
   <time name="diag">    0.57    0.57</time>
   <time name="diis">    3.19    3.51</time>
   <time name="orth">    0.02    0.02</time>
   <time name="total">    6.29    6.79</time>
   <energy>
    <i name="e_fr_energy">   -113.97413463 </i>
    <i name="e_wo_entrp">   -113.97413463 </i>
    <i name="e_0_energy">   -113.97413463 </i>
   </energy>
  </scstep>
  <scstep>
   <time name="diag">    0.41    0.41</time>
   <time name="diis">    2.41    2.41</time>
   <time name="orth">    0.01    0.01</time>
   <time name="total">    4.70    4.70</time>
   <energy>
    <i name="e_fr_energy">   -113.97434849 </i>
    <i name="e_wo_entrp">   -113.97434849 </i>
    <i name="e_0_energy">   -113.97434849 </i>
   </energy>
  </scstep>
  <scstep>
   <time name="diag">    0.36    0.36</time>
   <time name="diis">    2.44    2.44</time>
   <time name="orth">    0.01    0.01</time>
   <time name="total">    4.53    4.53</time>
   <energy>
    <i name="e_fr_energy">   -113.97439777 </i>
    <i name="e_wo_entrp">   -113.97439777 </i>
    <i name="e_0_energy">   -113.97439777 </i>
   </energy>
  </scstep>
  <scstep>
   <time name="diag">    0.31    0.31</time>
   <time name="diis">    1.91    1.91</time>
   <time name="orth">    0.01    0.01</time>
   <time name="total">    3.76    3.76</time>
   <energy>
    <i name="e_fr_energy">   -113.97442017 </i>
    <i name="e_wo_entrp">   -113.97442017 </i>
    <i name="e_0_energy">   -113.97442017 </i>
   </energy>
  </scstep>
  <scstep>
   <time name="diag">    0.17    0.17</time>
   <time name="diis">    0.79    0.79</time>
   <time name="orth">    0.00    0.00</time>
   <time name="total">    1.92    1.93</time>
   <energy>
    <i name="e_fr_energy">   -113.97443899 </i>
    <i name="e_wo_entrp">   -113.97443899 </i>
    <i name="e_0_energy">   -113.97443899 </i>
   </energy>
  </scstep>
  <scstep>
   <time name="diag">    0.13    0.13</time>
   <time name="diis">    0.66    0.66</time>
   <time name="orth">    0.00    0.00</time>
   <time name="total">    1.72    1.72</time>
   <energy>
    <i name="e_fr_energy">   -113.97446270 </i>
    <i name="e_wo_entrp">   -113.97446270 </i>
    <i name="e_0_energy">   -113.97446270 </i>
   </energy>
  </scstep>
  <scstep>
   <time name="diag">    0.19    0.19</time>
   <time name="diis">    1.59    1.61</time>
   <time name="orth">    0.01    0.01</time>
   <time name="total">    2.87    2.94</time>
   <energy>
    <i name="e_fr_energy">   -113.97449568 </i>
    <i name="e_wo_entrp">   -113.97449568 </i>
    <i name="e_0_energy">   -113.97449568 </i>
   </energy>
  </scstep>
  <scstep>
   <time name="diag">    0.27    0.27</time>
   <time name="diis">    0.94    1.07</time>
   <time name="orth">    0.01    0.01</time>
   <time name="total">    2.57    2.74</time>
   <energy>
    <i name="e_fr_energy">   -113.97450838 </i>
    <i name="e_wo_entrp">   -113.97450838 </i>
    <i name="e_0_energy">   -113.97450838 </i>
   </energy>
  </scstep>
  <scstep>
   <time name="diag">    0.19    0.19</time>
   <time name="diis">    0.85    0.85</time>
   <time name="orth">    0.01    0.01</time>
   <time name="total">    2.33    2.45</time>
   <energy>
    <i name="e_fr_energy">   -113.97453591 </i>
    <i name="e_wo_entrp">   -113.97453591 </i>
    <i name="e_0_energy">   -113.97453591 </i>
   </energy>
  </scstep>
  <scstep>
   <time name="diag">    0.23    0.23</time>
   <time name="diis">    0.64    0.64</time>
   <time name="orth">    0.02    0.02</time>
   <time name="total">    1.93    1.94</time>
   <energy>
    <i name="alphaZ">      3.36120243 </i>
    <i name="ewald">   2951.91819584 </i>
    <i name="hartreedc">  -4402.30425066 </i>
    <i name="XCdc">    169.57598048 </i>
    <i name="pawpsdc">   4392.73295769 </i>
    <i name="pawaedc">  -4401.09345379 </i>
    <i name="eentropy">     -0.00000000 </i>
    <i name="bandstr">   -633.96203151 </i>
    <i name="atom">   1805.79685712 </i>
    <i name="e_fr_energy">   -113.97454240 </i>
    <i name="e_wo_entrp">   -113.97454240 </i>
    <i name="e_0_energy">   -113.97454240 </i>
   </energy>
  </scstep>
  <structure>
   <crystal>
    <varray name="basis" >
     <v>      15.00000000       0.00000000       0.00000000 </v>
     <v>       0.00000000      15.00000000       0.00000000 </v>
     <v>       0.00000000       0.00000000      15.00000000 </v>
    </varray>
    <i name="volume">   3375.00000000 </i>
    <varray name="rec_basis" >
     <v>       0.06666667       0.00000000       0.00000000 </v>
     <v>       0.00000000       0.06666667       0.00000000 </v>
     <v>       0.00000000       0.00000000       0.06666667 </v>
    </varray>
   </crystal>
   <varray name="positions" >
    <v>       0.38287639       0.53166156       0.59197246 </v>
    <v>       0.39526233       0.43705378       0.60488533 </v>
    <v>       0.47327469       0.39924577       0.63002166 </v>
    <v>       0.44439399       0.59394241       0.61328634 </v>
    <v>       0.53371792       0.53275825       0.47264617 </v>
    <v>       0.53398628       0.44199748       0.47560615 </v>
    <v>       0.60430732       0.58334143       0.51003106 </v>
    <v>       0.46607138       0.38849885       0.43686834 </v>
    <v>       0.34194900       0.39402824       0.58019789 </v>
    <v>       0.53106155       0.43891497       0.64972928 </v>
    <v>       0.48279295       0.32719661       0.62997022 </v>
    <v>       0.32487525       0.55158727       0.55248219 </v>
    <v>       0.50624883       0.57659767       0.64740660 </v>
    <v>       0.43465902       0.66461792       0.59968240 </v>
    <v>       0.48167084       0.56966751       0.43796949 </v>
    <v>       0.59012171       0.40729249       0.50593680 </v>
    <v>       0.66171061       0.62630186       0.54083538 </v>
    <v>       0.40918789       0.34283653       0.40918024 </v>
   </varray>
  </structure>
  <varray name="forces" >
   <v>      -0.02866163       0.02009964       0.07096834 </v>
   <v>      -0.05039979      -0.01967805       0.05803015 </v>
[...]
   <v>       0.00888219      -0.00297274       0.00350576 </v>
   <v>       0.00239274       0.00324699      -0.00884420 </v>
   <v>      -0.00991616       0.00471184       0.02935382 </v>
   <v>      -0.00234581       0.00155301       0.02952555 </v>
   <v>      -0.02265311       0.01262665       0.02358767 </v>
   <v>      -0.01239391      -0.00012814       0.02735901 </v>
   <v>      -0.01018383       0.00788166       0.02163049 </v>
   <v>      -0.03272400      -0.01276813       0.01592052 </v>
   <v>       0.03658957       0.00372096      -0.04851225 </v>
   <v>       0.02596537      -0.00721250      -0.05157137 </v>
   <v>       0.00288971      -0.01200693      -0.01234779 </v>
   <v>       0.01480516       0.00502071      -0.02239828 </v>
  </varray>
  <varray name="stress" >
   <v>      -1.10680603      -0.00631446      -0.02776982 </v>
   <v>      -0.00631445      -1.20062388       0.01294225 </v>
   <v>      -0.02776982       0.01294225      -1.10596610 </v>
  </varray>
  <energy>
   <i name="e_fr_energy">   -114.68472044 </i>
   <i name="e_wo_entrp">   -114.68472044 </i>
   <i name="e_0_energy">   -114.68472044 </i>
  </energy>
  <time name="totalsc">   32.53   34.00</time>
 </calculation>
 <calculation>
  <scstep>
   <time name="dav">    5.17    5.41</time>
   <time name="total">    7.38    7.63</time>
   <energy>
    <i name="alphaZ">      3.36120243 </i>
    <i name="ewald">   2670.07489197 </i>
    <i name="hartreedc">  -4122.06637709 </i>
    <i name="XCdc">    169.03918764 </i>
    <i name="pawpsdc">   4381.16695525 </i>
    <i name="pawaedc">  -4389.51380976 </i>
    <i name="eentropy">     -0.00000000 </i>
    <i name="bandstr">   -632.27531118 </i>
    <i name="atom">   1805.79685712 </i>
    <i name="e_fr_energy">   -114.41640363 </i>
    <i name="e_wo_entrp">   -114.41640363 </i>
    <i name="e_0_energy">   -114.41640363 </i>
   </energy>
  </scstep>
  <scstep>
   <time name="diag">    0.60    0.76</time>
   <time name="diis">    1.56    1.68</time>
   <time name="orth">    0.01    0.01</time>
   <time name="total">    4.08    4.40</time>
   <energy>
    <i name="alphaZ">      3.36120243 </i>
    <i name="ewald">   2670.07489197 </i>
    <i name="hartreedc">  -4122.07637209 </i>
    <i name="XCdc">    169.03958297 </i>
    <i name="pawpsdc">   4381.20497019 </i>
    <i name="pawaedc">  -4389.55191028 </i>
    <i name="eentropy">     -0.00000000 </i>
    <i name="bandstr">   -632.26562683 </i>
    <i name="atom">   1805.79685712 </i>
    <i name="e_fr_energy">   -114.41640453 </i>
    <i name="e_wo_entrp">   -114.41640453 </i>
    <i name="e_0_energy">   -114.41640453 </i>
   </energy>
  </scstep>
  <structure>
   <crystal>
    <varray name="basis" >
     <v>      15.00000000       0.00000000       0.00000000 </v>
     <v>       0.00000000      15.00000000       0.00000000 </v>
     <v>       0.00000000       0.00000000      15.00000000 </v>
    </varray>
    <i name="volume">   3375.00000000 </i>
    <varray name="rec_basis" >
     <v>       0.06666667       0.00000000       0.00000000 </v>
     <v>       0.00000000       0.06666667       0.00000000 </v>
     <v>       0.00000000       0.00000000       0.06666667 </v>
    </varray>
   </crystal>
   <varray name="positions" >
    <v>       0.37690300       0.53167553       0.60006291 </v>
    <v>       0.39040041       0.43630490       0.61475187 </v>
    <v>       0.46454333       0.39695254       0.64662782 </v>
    <v>       0.43341806       0.59785669       0.62218243 </v>
    <v>       0.54964444       0.53233603       0.45811838 </v>
    <v>       0.54942637       0.44202789       0.45990169 </v>
    <v>       0.61738947       0.58350040       0.49968388 </v>
    <v>       0.48110572       0.39119297       0.41885358 </v>
    <v>       0.33516424       0.39334041       0.59411299 </v>
    <v>       0.52311163       0.43513557       0.66705693 </v>
    <v>       0.46881075       0.32464690       0.65314786 </v>
    <v>       0.31501786       0.54945592       0.56567594 </v>
    <v>       0.49613417       0.58556761       0.65706941 </v>
    <v>       0.41857324       0.66726450       0.60633306 </v>
    <v>       0.49594206       0.56917549       0.42563836 </v>
    <v>       0.60174875       0.40506018       0.49448884 </v>
    <v>       0.67233249       0.62700349       0.53409728 </v>
    <v>       0.42502132       0.34833245       0.38553087 </v>
   </varray>
  </structure>
  <varray name="forces" >
   <v>       0.00370144      -0.00528700      -0.00681397 </v>
   <v>       0.00476211       0.00252261      -0.00725322 </v>
   <v>       0.00828590       0.00793373      -0.01333486 </v>
   <v>       0.00540254      -0.00760610      -0.01291920 </v>
   <v>      -0.00687766       0.00029723       0.01676511 </v>
   <v>      -0.01193599      -0.00128655       0.01519095 </v>
   <v>      -0.00235846      -0.01147290      -0.00332153 </v>
   <v>       0.00340416       0.00427092      -0.00749191 </v>
   <v>      -0.00949613       0.00474773       0.02883752 </v>
   <v>      -0.00225865       0.00162560       0.02882638 </v>
   <v>      -0.02218779       0.01214999       0.02441528 </v>
   <v>      -0.01194059      -0.00020868       0.02670431 </v>
   <v>      -0.01008474       0.00835708       0.02097202 </v>
   <v>      -0.03246773      -0.01147623       0.01638368 </v>
   <v>       0.03571819       0.00410468      -0.04690083 </v>
   <v>       0.02495089      -0.00687932      -0.04985463 </v>
   <v>       0.01187131      -0.00433976      -0.00504468 </v>
   <v>       0.01151120       0.00254698      -0.02516042 </v>
  </varray>
  <varray name="stress" >
   <v>      -1.10228958      -0.00374103      -0.02563412 </v>
   <v>      -0.00374103      -1.19395964       0.01465216 </v>
   <v>      -0.02563412       0.01465216      -1.10128563 </v>
  </varray>
  <energy>
   <i name="e_fr_energy">   -114.68481969 </i>
   <i name="e_wo_entrp">   -114.68481969 </i>
   <i name="e_0_energy">   -114.68481969 </i>
  </energy>
  <time name="totalsc">   22.42   23.55</time>
 </calculation>
 <calculation>
  <scstep>
   <time name="dav">    2.97    3.16</time>
   <time name="total">    5.35    5.97</time>
   <energy>
    <i name="alphaZ">      3.36120243 </i>
    <i name="ewald">   2669.99744248 </i>
    <i name="hartreedc">  -4122.01022908 </i>
    <i name="XCdc">    169.03975465 </i>
    <i name="pawpsdc">   4381.27190255 </i>
    <i name="pawaedc">  -4389.61893504 </i>
    <i name="eentropy">     -0.00000000 </i>
    <i name="bandstr">   -632.25456304 </i>
    <i name="atom">   1805.79685712 </i>
    <i name="e_fr_energy">   -114.41656794 </i>
    <i name="e_wo_entrp">   -114.41656794 </i>
    <i name="e_0_energy">   -114.41656794 </i>
   </energy>
  </scstep>
  <scstep>
   <time name="diag">    0.51    0.58</time>
   <time name="diis">    1.44    1.67</time>
   <time name="orth">    0.01    0.01</time>
   <time name="total">    3.65    4.34</time>
   <energy>
    <i name="alphaZ">      3.36120243 </i>
    <i name="ewald">   2669.99744248 </i>
    <i name="hartreedc">  -4122.01261603 </i>
    <i name="XCdc">    169.03971369 </i>
    <i name="pawpsdc">   4381.31921336 </i>
    <i name="pawaedc">  -4389.66624156 </i>
    <i name="eentropy">     -0.00000000 </i>
    <i name="bandstr">   -632.25214049 </i>
    <i name="atom">   1805.79685712 </i>
    <i name="e_fr_energy">   -114.41656900 </i>
    <i name="e_wo_entrp">   -114.41656900 </i>
    <i name="e_0_energy">   -114.41656900 </i>
   </energy>
  </scstep>
  <structure>
   <crystal>
    <varray name="basis" >
     <v>      15.00000000       0.00000000       0.00000000 </v>
     <v>       0.00000000      15.00000000       0.00000000 </v>
     <v>       0.00000000       0.00000000      15.00000000 </v>
    </varray>
    <i name="volume">   3375.00000000 </i>
    <varray name="rec_basis" >
     <v>       0.06666667       0.00000000       0.00000000 </v>
     <v>       0.00000000       0.06666667       0.00000000 </v>
     <v>       0.00000000       0.00000000       0.06666667 </v>
    </varray>
   </crystal>
   <varray name="positions" >
    <v>       0.37690516       0.53167337       0.60006035 </v>
    <v>       0.39040327       0.43630586       0.61475002 </v>
    <v>       0.46454479       0.39695536       0.64662937 </v>
    <v>       0.43341658       0.59785551       0.62218287 </v>
    <v>       0.54964702       0.53233515       0.45811657 </v>
    <v>       0.54942562       0.44202710       0.45989760 </v>
    <v>       0.61739196       0.58349413       0.49967778 </v>
    <v>       0.48110945       0.39119498       0.41884249 </v>
    <v>       0.33515984       0.39334313       0.59412787 </v>
    <v>       0.52310958       0.43513500       0.66707579 </v>
    <v>       0.46879500       0.32465197       0.65317207 </v>
    <v>       0.31501291       0.54945450       0.56568751 </v>
    <v>       0.49612644       0.58557522       0.65708460 </v>
    <v>       0.41855026       0.66726150       0.60635076 </v>
    <v>       0.49596313       0.56917833       0.42561042 </v>
    <v>       0.60176252       0.40505508       0.49445751 </v>
    <v>       0.67233804       0.62700080       0.53409512 </v>
    <v>       0.42502644       0.34833285       0.38551601 </v>
   </varray>
  </structure>
  <varray name="forces" >
   <v>       0.00314380      -0.00492862      -0.00656012 </v>
   <v>       0.00416435       0.00230475      -0.00685740 </v>
   <v>       0.00762616       0.00760854      -0.01155468 </v>
   <v>       0.00471913      -0.00714743      -0.01138463 </v>
   <v>      -0.00753892      -0.00056534       0.01452967 </v>
   <v>      -0.01057759      -0.00104413       0.01410519 </v>
   <v>       0.00608130      -0.00452535       0.00209582 </v>
   <v>       0.00102430       0.00250058      -0.00832711 </v>
   <v>      -0.00923857       0.00434343       0.02808064 </v>
   <v>      -0.00224435       0.00157161       0.02755147 </v>
   <v>      -0.02142054       0.01144123       0.02379621 </v>
   <v>      -0.01182874      -0.00016840       0.02590212 </v>
   <v>      -0.00982133       0.00804292       0.01989062 </v>
   <v>      -0.03166658      -0.01090335       0.01580911 </v>
   <v>       0.03495797       0.00385835      -0.04598422 </v>
   <v>       0.02442687      -0.00683015      -0.04872807 </v>
   <v>       0.00528596      -0.00950460      -0.00900674 </v>
   <v>       0.01290677       0.00394596      -0.02335788 </v>
  </varray>
  <varray name="stress" >
   <v>      -1.10495606      -0.00458211      -0.02629439 </v>
   <v>      -0.00458211      -1.19406298       0.01386254 </v>
   <v>      -0.02629439       0.01386254      -1.10395042 </v>
  </varray>
  <energy>
   <i name="e_fr_energy">   -114.68494881 </i>
   <i name="e_wo_entrp">   -114.68494881 </i>
   <i name="e_0_energy">   -114.68494881 </i>
  </energy>
  <time name="totalsc">   19.16   21.67</time>
 </calculation>
 <calculation>
  <scstep>
   <time name="dav">    2.73    2.90</time>
   <time name="total">    6.17    6.47</time>
   <energy>
    <i name="alphaZ">      3.36120243 </i>
    <i name="ewald">   2670.06176734 </i>
    <i name="hartreedc">  -4122.01548883 </i>
    <i name="XCdc">    169.04388421 </i>
    <i name="pawpsdc">   4381.36357880 </i>
    <i name="pawaedc">  -4389.71060031 </i>
    <i name="eentropy">     -0.00000000 </i>
    <i name="bandstr">   -632.31904636 </i>
    <i name="atom">   1805.79685712 </i>
    <i name="e_fr_energy">   -114.41784560 </i>
    <i name="e_wo_entrp">   -114.41784560 </i>
    <i name="e_0_energy">   -114.41784560 </i>
   </energy>
  </scstep>
  <scstep>
   <time name="diag">    0.49    0.68</time>
   <time name="diis">    2.73    3.15</time>
   <time name="orth">    0.02    0.02</time>
   <time name="total">    6.06    7.08</time>
   <energy>
    <i name="e_fr_energy">   -114.41789740 </i>
    <i name="e_wo_entrp">   -114.41789740 </i>
    <i name="e_0_energy">   -114.41789740 </i>
   </energy>
  </scstep>
  <scstep>
   <time name="diag">    0.55    0.55</time>
   <time name="diis">    3.32    3.34</time>
   <time name="orth">    0.02    0.03</time>
   <time name="total">    6.21    6.44</time>
   <energy>
    <i name="e_fr_energy">   -114.41792090 </i>
    <i name="e_wo_entrp">   -114.41792090 </i>
    <i name="e_0_energy">   -114.41792090 </i>
   </energy>
  </scstep>
  <scstep>
   <time name="diag">    0.37    0.37</time>
   <time name="diis">    1.22    1.23</time>
   <time name="orth">    0.01    0.01</time>
   <time name="total">    3.48    3.49</time>
   <energy>
    <i name="alphaZ">      3.36120243 </i>
    <i name="ewald">   2670.06176734 </i>
    <i name="hartreedc">  -4122.11079851 </i>
    <i name="XCdc">    169.04698237 </i>
    <i name="pawpsdc">   4382.48628244 </i>
    <i name="pawaedc">  -4390.83406945 </i>
    <i name="eentropy">     -0.00000000 </i>
    <i name="bandstr">   -632.22614841 </i>
    <i name="atom">   1805.79685712 </i>
    <i name="e_fr_energy">   -114.41792466 </i>
    <i name="e_wo_entrp">   -114.41792466 </i>
    <i name="e_0_energy">   -114.41792466 </i>
   </energy>
  </scstep>
  <structure>
   <crystal>
    <varray name="basis" >
     <v>      15.00000000       0.00000000       0.00000000 </v>
     <v>       0.00000000      15.00000000       0.00000000 </v>
     <v>       0.00000000       0.00000000      15.00000000 </v>
    </varray>
    <i name="volume">   3375.00000000 </i>
    <varray name="rec_basis" >
     <v>       0.06666667       0.00000000       0.00000000 </v>
     <v>       0.00000000       0.06666667       0.00000000 </v>
     <v>       0.00000000       0.00000000       0.06666667 </v>
    </varray>
   </crystal>
   <varray name="positions" >
    <v>       0.37693132       0.53164871       0.60001845 </v>
    <v>       0.39043502       0.43631778       0.61470927 </v>
    <v>       0.46457983       0.39699209       0.64659292 </v>
    <v>       0.43343281       0.59782558       0.62214522 </v>
    <v>       0.54962007       0.53232743       0.45817110 </v>
    <v>       0.54937954       0.44202340       0.45994429 </v>
    <v>       0.61741233       0.58345478       0.49967347 </v>
    <v>       0.48111738       0.39121018       0.41878794 </v>
    <v>       0.33511156       0.39337039       0.59428509 </v>
    <v>       0.52309295       0.43513738       0.66726193 </v>
    <v>       0.46865115       0.32471077       0.65334011 </v>
    <v>       0.31495499       0.54945589       0.56582296 </v>
    <v>       0.49605784       0.58563105       0.65723229 </v>
    <v>       0.41834750       0.66720674       0.60646785 </v>
    <v>       0.49617784       0.56920144       0.42531031 </v>
    <v>       0.60192444       0.40501379       0.49414054 </v>
    <v>       0.67237654       0.62695916       0.53405472 </v>
    <v>       0.42508946       0.34834584       0.38538028 </v>
   </varray>
  </structure>
  <varray name="forces" >
   <v>      -0.00178088      -0.00236408      -0.00175214 </v>
   <v>       0.00045549       0.00090875      -0.00049589 </v>
   <v>       0.00148919       0.00324412       0.00665282 </v>
   <v>      -0.00426089       0.00091847       0.00295348 </v>
   <v>       0.00151319       0.00110074      -0.00165670 </v>
   <v>      -0.00043201      -0.00438066      -0.00282567 </v>
   <v>       0.00343630      -0.00443917       0.00182951 </v>
   <v>       0.00302457       0.00304715      -0.00706610 </v>
   <v>      -0.00597427       0.00071286       0.02043334 </v>
   <v>      -0.00171867       0.00108988       0.01554517 </v>
   <v>      -0.01326013       0.00387719       0.02091130 </v>
   <v>      -0.01038242      -0.00010729       0.01751652 </v>
   <v>      -0.00697577       0.00663954       0.00939003 </v>
   <v>      -0.02394549      -0.00292491       0.01248963 </v>
   <v>       0.02446151       0.00288929      -0.03169617 </v>
   <v>       0.01586757      -0.00554752      -0.03262156 </v>
   <v>       0.01081217      -0.00562034      -0.00482754 </v>
   <v>       0.00767054       0.00095597      -0.02478002 </v>
  </varray>
  <varray name="stress" >
   <v>      -1.09734102      -0.00070278      -0.02030766 </v>
   <v>      -0.00070278      -1.15690283       0.01401020 </v>
   <v>      -0.02030767       0.01401019      -1.10281505 </v>
  </varray>
  <energy>
   <i name="e_fr_energy">   -114.68603582 </i>
   <i name="e_wo_entrp">   -114.68603582 </i>
   <i name="e_0_energy">   -114.68603582 </i>
  </energy>
  <time name="totalsc">   31.12   33.19</time>
  <eigenvalues>
   <array>
    <dimension dim="1">band</dimension>
    <dimension dim="2">kpoint</dimension>
    <dimension dim="3">spin</dimension>
    <field>eigene</field>
    <field>occ</field>
    <set>
     <set comment="spin 1">
      <set comment="kpoint 1">
       <r>  -22.9607    1.0000 </r>
       <r>  -22.8045    1.0000 </r>
       <r>  -20.9764    1.0000 </r>
       <r>  -20.1533    1.0000 </r>
       <r>  -18.1991    1.0000 </r>
       <r>  -17.6844    1.0000 </r>
       <r>  -15.5176    1.0000 </r>
       <r>  -13.9257    1.0000 </r>
       <r>  -13.4400    1.0000 </r>
       <r>  -13.0909    1.0000 </r>
       <r>  -12.2400    1.0000 </r>
       <r>  -11.1830    1.0000 </r>
       <r>  -10.9280    1.0000 </r>
       <r>  -10.2985    1.0000 </r>
       <r>  -10.1698    1.0000 </r>
       <r>   -9.1346    1.0000 </r>
       <r>   -8.9142    1.0000 </r>
       <r>   -8.8017    1.0000 </r>
       <r>   -8.7542    1.0000 </r>
       <r>   -8.6091    1.0000 </r>
       <r>   -8.5754    1.0000 </r>
       <r>   -8.4013    1.0000 </r>
       <r>   -8.1560    1.0000 </r>
       <r>   -7.1500    1.0000 </r>
       <r>   -6.0443    1.0000 </r>
       <r>   -3.4957    0.0000 </r>
       <r>   -2.4331    0.0000 </r>
       <r>   -1.0472    0.0000 </r>
       <r>   -0.8297    0.0000 </r>
       <r>   -0.3429    0.0000 </r>
       <r>   -0.1165    0.0000 </r>
       <r>    0.0806    0.0000 </r>
       <r>    0.2401    0.0000 </r>
       <r>    0.4106    0.0000 </r>
       <r>    0.4848    0.0000 </r>
      </set>
     </set>
    </set>
   </array>
  </eigenvalues>
  <separator name="orbital magnetization" >
   <v name="MAGDIPOLOUT">      0.00000000      0.00000000      0.00000000</v>
  </separator>
 </calculation>
 <structure name="finalpos" >
  <crystal>
   <varray name="basis" >
    <v>      15.00000000       0.00000000       0.00000000 </v>
    <v>       0.00000000      15.00000000       0.00000000 </v>
    <v>       0.00000000       0.00000000      15.00000000 </v>
   </varray>
   <i name="volume">   3375.00000000 </i>
   <varray name="rec_basis" >
    <v>       0.06666667       0.00000000       0.00000000 </v>
    <v>       0.00000000       0.06666667       0.00000000 </v>
    <v>       0.00000000       0.00000000       0.06666667 </v>
   </varray>
  </crystal>
  <varray name="positions" >
   <v>       0.37693132       0.53164871       0.60001845 </v>
   <v>       0.39043502       0.43631778       0.61470927 </v>
   <v>       0.46457983       0.39699209       0.64659292 </v>
   <v>       0.43343281       0.59782558       0.62214522 </v>
   <v>       0.54962007       0.53232743       0.45817110 </v>
   <v>       0.54937954       0.44202340       0.45994429 </v>
   <v>       0.61741233       0.58345478       0.49967347 </v>
   <v>       0.48111738       0.39121018       0.41878794 </v>
   <v>       0.33511156       0.39337039       0.59428509 </v>
   <v>       0.52309295       0.43513738       0.66726193 </v>
   <v>       0.46865115       0.32471077       0.65334011 </v>
   <v>       0.31495499       0.54945589       0.56582296 </v>
   <v>       0.49605784       0.58563105       0.65723229 </v>
   <v>       0.41834750       0.66720674       0.60646785 </v>
   <v>       0.49617784       0.56920144       0.42531031 </v>
   <v>       0.60192444       0.40501379       0.49414054 </v>
   <v>       0.67237654       0.62695916       0.53405472 </v>
   <v>       0.42508946       0.34834584       0.38538028 </v>
  </varray>
 </structure>
</modeling>
