unknown system                          
           1
    15.000000    0.000000    0.000000
     0.000000   15.000000    0.000000
     0.000000    0.000000   15.000000
   C    H    N 
     8     8     2
Direct configuration=     1
   0.38320394  0.53086393  0.59054621
   0.39467630  0.43770846  0.60563393
   0.47399233  0.39964035  0.62851449
   0.44547934  0.59303989  0.61102440
   0.53018905  0.53335272  0.47958348
   0.53208978  0.44158156  0.47826021
   0.60457179  0.58208363  0.51058642
   0.46577480  0.38922675  0.43707638
   0.34353055  0.39553490  0.57801977
   0.53125964  0.43859198  0.64802846
   0.48389335  0.32754068  0.62959148
   0.32723181  0.55106538  0.54923443
   0.50745933  0.57594050  0.64478168
   0.43446140  0.66447263  0.60123129
   0.48230722  0.56913401  0.43899670
   0.58974438  0.40970112  0.50740990
   0.66088538  0.62673784  0.54083224
   0.40924802  0.34235352  0.41097714
Direct configuration=     2
   0.38324138  0.53104111  0.59069289
   0.39501873  0.43756164  0.60554883
   0.47364255  0.39952010  0.62860120
   0.44542340  0.59318380  0.61109662
   0.53052681  0.53311434  0.47906369
   0.53229914  0.44210223  0.47837026
   0.60452549  0.58226797  0.51072305
   0.46599033  0.38916233  0.43716929
   0.34322322  0.39523146  0.57805685
   0.53134990  0.43872641  0.64837430
   0.48376117  0.32754746  0.62963844
   0.32696220  0.55110055  0.54924133
   0.50731238  0.57598521  0.64502331
   0.43449582  0.66436753  0.60095832
   0.48220876  0.56927181  0.43915548
   0.58994600  0.40948042  0.50749886
   0.66122436  0.62683203  0.54081466
   0.40927798  0.34231592  0.41068302
Direct configuration=     3
   0.38322721  0.53116618  0.59078352
   0.39501554  0.43746536  0.60535987
   0.47363362  0.39944076  0.62881667
   0.44536232  0.59328317  0.61121569
   0.53087713  0.53319862  0.47855396
   0.53254024  0.44219543  0.47840478
   0.60460857  0.58252730  0.51089695
   0.46604279  0.38900903  0.43718726
   0.34303554  0.39503025  0.57815081
   0.53130380  0.43876402  0.64866455
   0.48362497  0.32752035  0.62968869
   0.32675977  0.55111362  0.54930786
   0.50716731  0.57603734  0.64525569
   0.43452122  0.66432972  0.60068977
   0.48213095  0.56938003  0.43931312
   0.59007084  0.40932452  0.50755595
   0.66140326  0.62681830  0.54073367
   0.40951438  0.34243877  0.41049448
Direct configuration=     4
   0.38316239  0.53132711  0.59090519
   0.39504418  0.43731641  0.60507752
   0.47356295  0.39935802  0.62916490
   0.44524735  0.59343047  0.61143518
   0.53151866  0.53331174  0.47772975
   0.53290613  0.44231289  0.47838491
   0.60457276  0.58282152  0.51106155
   0.46638314  0.38896814  0.43733559
   0.34273707  0.39470876  0.57831900
   0.53121247  0.43881560  0.64915446
   0.48340040  0.32744782  0.62978360
   0.32644396  0.55113490  0.54945949
   0.50692473  0.57613103  0.64565517
   0.43455997  0.66429945  0.60023797
   0.48199095  0.56957240  0.43954919
   0.59027746  0.40906606  0.50764517
   0.66185429  0.62691689  0.54069153
   0.40971961  0.34248539  0.41008432
Direct configuration=     5
   0.38292020  0.53157107  0.59110972
   0.39513299  0.43700836  0.60449199
   0.47327332  0.39926395  0.62998822
   0.44488856  0.59371187  0.61201151
   0.53309290  0.53348333  0.47580001
   0.53383675  0.44253880  0.47817642
   0.60470858  0.58365699  0.51142906
   0.46703298  0.38875674  0.43757042
   0.34209732  0.39399801  0.57876570
   0.53092366  0.43889391  0.65036106
   0.48285845  0.32721932  0.63005639
   0.32574607  0.55118601  0.54993894
   0.50633301  0.57638128  0.64665938
   0.43464282  0.66432078  0.59913324
   0.48165736  0.57004590  0.44006432
   0.59076081  0.40847444  0.50784689
   0.66279449  0.62705536  0.54055612
   0.41048501  0.34279572  0.40919088
Direct configuration=     6
   0.38292568  0.53153488  0.59118730
   0.39512657  0.43705825  0.60459614
   0.47330227  0.39928751  0.62990983
   0.44484482  0.59369371  0.61212259
   0.53302126  0.53337454  0.47558412
   0.53375718  0.44241630  0.47785319
   0.60467276  0.58356278  0.51122341
   0.46681561  0.38872482  0.43745177
   0.34215673  0.39408291  0.57891184
   0.53095966  0.43888229  0.65016033
   0.48290585  0.32723125  0.63001834
   0.32571957  0.55122973  0.55023596
   0.50638885  0.57638359  0.64665989
   0.43464032  0.66437540  0.59930715
   0.48169130  0.56995450  0.43974098
   0.59062513  0.40838488  0.50757843
   0.66253483  0.62692357  0.54059276
   0.41028637  0.34280517  0.40929861
Direct configuration=     7
   0.38291162  0.53157232  0.59149019
   0.39517926  0.43706802  0.60472020
   0.47329937  0.39927968  0.62992061
   0.44467650  0.59377618  0.61256378
   0.53327096  0.53312598  0.47448956
   0.53378336  0.44223038  0.47696547
   0.60436086  0.58334141  0.51067302
   0.46665036  0.38876628  0.43730826
   0.34209688  0.39408542  0.57940403
   0.53101219  0.43889485  0.64994494
   0.48288241  0.32722479  0.62998421
   0.32541529  0.55136739  0.55111024
   0.50636142  0.57645511  0.64691815
   0.43464965  0.66447426  0.59949028
   0.48168764  0.56983340  0.43902067
   0.59040762  0.40796806  0.50692060
   0.66230706  0.62676767  0.54075726
   0.40969355  0.34270279  0.40922051
Direct configuration=     8
   0.38287639  0.53166156  0.59197246
   0.39526233  0.43705378  0.60488533
   0.47327469  0.39924577  0.63002166
   0.44439399  0.59394241  0.61328634
   0.53371792  0.53275825  0.47264617
   0.53398628  0.44199748  0.47560615
   0.60430732  0.58334143  0.51003106
   0.46607138  0.38849885  0.43686834
   0.34194900  0.39402824  0.58019789
   0.53106155  0.43891497  0.64972928
   0.48279295  0.32719661  0.62997022
   0.32487525  0.55158727  0.55248219
   0.50624883  0.57659767  0.64740660
   0.43465902  0.66461792  0.59968240
   0.48167084  0.56966751  0.43796949
   0.59012171  0.40729249  0.50593680
   0.66171061  0.62630186  0.54083538
   0.40918789  0.34283653  0.40918024
Direct configuration=     9
   0.38289029  0.53168401  0.59227063
   0.39527765  0.43710144  0.60514742
   0.47330929  0.39922435  0.62998094
   0.44424968  0.59402156  0.61368924
   0.53377556  0.53252985  0.47174255
   0.53400198  0.44176890  0.47463276
   0.60418848  0.58308680  0.50939245
   0.46571720  0.38846819  0.43651629
   0.34196185  0.39411614  0.58068961
   0.53111854  0.43889628  0.64941188
   0.48280374  0.32720672  0.62995228
   0.32459972  0.55173753  0.55336581
   0.50623366  0.57667888  0.64760343
   0.43462822  0.66471260  0.60000438
   0.48174808  0.56944376  0.43715860
   0.58985929  0.40694092  0.50522544
   0.66123349  0.62603557  0.54097349
   0.40862519  0.34279280  0.40922773
Direct configuration=    10
   0.38286849  0.53175025  0.59252462
   0.39529806  0.43709870  0.60534329
   0.47328791  0.39918092  0.63007493
   0.44411524  0.59412853  0.61403629
   0.53399408  0.53238035  0.47093546
   0.53414714  0.44165894  0.47384137
   0.60416502  0.58294426  0.50888243
   0.46559737  0.38846977  0.43620497
   0.34188790  0.39410425  0.58110511
   0.53111756  0.43887469  0.64935092
   0.48272974  0.32717047  0.63001897
   0.32429612  0.55185708  0.55406839
   0.50611952  0.57679113  0.64787557
   0.43457591  0.66477616  0.60013806
   0.48178887  0.56930607  0.43660743
   0.58975571  0.40663898  0.50472579
   0.66100066  0.62587813  0.54106765
   0.40827307  0.34276087  0.40911809
Direct configuration=    11
   0.38285392  0.53177317  0.59260693
   0.39528482  0.43710319  0.60546312
   0.47326700  0.39915202  0.63013821
   0.44406871  0.59416829  0.61412601
   0.53404590  0.53234479  0.47075471
   0.53423808  0.44163661  0.47355852
   0.60427279  0.58290842  0.50868568
   0.46554082  0.38844871  0.43599703
   0.34186755  0.39411271  0.58123727
   0.53109766  0.43884677  0.64937692
   0.48268417  0.32714237  0.63009163
   0.32419126  0.55189402  0.55428498
   0.50605470  0.57684812  0.64797599
   0.43452451  0.66479533  0.60019088
   0.48183074  0.56923811  0.43643863
   0.58975325  0.40657929  0.50457422
   0.66089674  0.62581623  0.54107112
   0.40824235  0.34279083  0.40907886
Direct configuration=    12
   0.38279861  0.53183367  0.59278707
   0.39526439  0.43707694  0.60559373
   0.47319245  0.39908822  0.63035097
   0.44392785  0.59426579  0.61435853
   0.53433596  0.53229719  0.47017093
   0.53449140  0.44160064  0.47302075
   0.60440458  0.58290391  0.50835149
   0.46559680  0.38845277  0.43570630
   0.34175880  0.39404870  0.58153457
   0.53102915  0.43880538  0.64956566
   0.48253637  0.32706660  0.63025432
   0.32392400  0.55196406  0.55474502
   0.50588142  0.57697540  0.64827489
   0.43444497  0.66483976  0.60015414
   0.48186616  0.56917762  0.43619000
   0.58979835  0.40639822  0.50430840
   0.66088342  0.62576367  0.54108517
   0.40820696  0.34283049  0.40886823
Direct configuration=    13
   0.38272784  0.53185983  0.59287306
   0.39522435  0.43704123  0.60565659
   0.47308921  0.39903168  0.63058401
   0.44381267  0.59433042  0.61446704
   0.53460551  0.53231725  0.46987047
   0.53474454  0.44162004  0.47276569
   0.60457437  0.58297186  0.50819009
   0.46579174  0.38849275  0.43552559
   0.34166289  0.39397511  0.58168687
   0.53092468  0.43875435  0.64987216
   0.48237414  0.32698732  0.63044439
   0.32375100  0.55198296  0.55495265
   0.50571256  0.57708129  0.64851266
   0.43436928  0.66486133  0.60001761
   0.48189656  0.56918153  0.43619023
   0.58992519  0.40633914  0.50424525
   0.66103541  0.62580724  0.54104925
   0.40835718  0.34288725  0.40862679
Direct configuration=    14
   0.38264609  0.53186995  0.59293117
   0.39516751  0.43699754  0.60569682
   0.47295821  0.39897063  0.63085367
   0.44368534  0.59438330  0.61453938
   0.53489863  0.53236600  0.46964411
   0.53503975  0.44167040  0.47260455
   0.60481058  0.58310860  0.50810227
   0.46601152  0.38850661  0.43535052
   0.34156624  0.39389196  0.58179787
   0.53078289  0.43868855  0.65027144
   0.48218206  0.32690245  0.63067300
   0.32359786  0.55198066  0.55508513
   0.50552400  0.57719130  0.64875125
   0.43428908  0.66487462  0.59981812
   0.48193573  0.56921449  0.43629757
   0.59010145  0.40632500  0.50425515
   0.66124961  0.62587481  0.54096412
   0.40866285  0.34300387  0.40836379
Direct configuration=    15
   0.38250706  0.53187556  0.59301512
   0.39506437  0.43692497  0.60577441
   0.47272452  0.39886657  0.63131229
   0.44346908  0.59446374  0.61463824
   0.53539037  0.53246157  0.46933705
   0.53552668  0.44175780  0.47235869
   0.60515961  0.58329086  0.50792335
   0.46652414  0.38863490  0.43511385
   0.34141438  0.39376137  0.58196186
   0.53052504  0.43856491  0.65097108
   0.48184926  0.32676141  0.63107913
   0.32335738  0.55196588  0.55527383
   0.50520102  0.57737808  0.64913726
   0.43414701  0.66488989  0.59947484
   0.48201885  0.56927248  0.43651247
   0.59041638  0.40633104  0.50429591
   0.66169039  0.62604976  0.54083827
   0.40912107  0.34313068  0.40786517
Direct configuration=    16
   0.38243379  0.53187134  0.59306044
   0.39500779  0.43688779  0.60582548
   0.47259405  0.39881080  0.63155391
   0.44334991  0.59450349  0.61469263
   0.53564228  0.53250873  0.46917924
   0.53579294  0.44180957  0.47222701
   0.60537842  0.58340906  0.50783772
   0.46674845  0.38866956  0.43496467
   0.34134032  0.39369910  0.58204899
   0.53037718  0.43849145  0.65134580
   0.48166761  0.32669064  0.63130364
   0.32323193  0.55195502  0.55538242
   0.50502693  0.57747865  0.64933437
   0.43406991  0.66489331  0.59929763
   0.48207631  0.56929910  0.43662001
   0.59058400  0.40633863  0.50430681
   0.66189398  0.62612240  0.54074752
   0.40941465  0.34323739  0.40761836
Direct configuration=    17
   0.38231464  0.53185159  0.59310666
   0.39490798  0.43682656  0.60589444
   0.47237310  0.39872177  0.63194646
   0.44316266  0.59455359  0.61474183
   0.53603975  0.53260729  0.46902403
   0.53621555  0.44190800  0.47209804
   0.60571564  0.58359759  0.50773106
   0.46718876  0.38876998  0.43477718
   0.34123047  0.39360205  0.58214316
   0.53012029  0.43836446  0.65198531
   0.48136760  0.32657948  0.63167981
   0.32306091  0.55191912  0.55548430
   0.50474815  0.57763412  0.64962383
   0.43394563  0.66488751  0.59898828
   0.48217824  0.56935884  0.43686282
   0.59087928  0.40639203  0.50437797
   0.66229014  0.62628546  0.54059136
   0.40991504  0.34339203  0.40719619
Direct configuration=    18
   0.38216082  0.53180890  0.59315623
   0.39476667  0.43674882  0.60600104
   0.47206588  0.39860261  0.63245942
   0.44291360  0.59460379  0.61478315
   0.53653981  0.53274693  0.46890648
   0.53676703  0.44205108  0.47197333
   0.60616339  0.58384024  0.50759493
   0.46780347  0.38893274  0.43455296
   0.34110344  0.39349174  0.58223559
   0.52975093  0.43817677  0.65285084
   0.48095782  0.32644073  0.63220399
   0.32285893  0.55185274  0.55558801
   0.50438117  0.57783623  0.64996473
   0.43377481  0.66486138  0.59858630
   0.48234801  0.56943863  0.43720192
   0.59128672  0.40649780  0.50447847
   0.66283313  0.62652318  0.54035571
   0.41061198  0.34360339  0.40662912
Direct configuration=    19
   0.38201534  0.53176065  0.59319862
   0.39462663  0.43667747  0.60611131
   0.47176596  0.39848741  0.63294496
   0.44267907  0.59464326  0.61480883
   0.53699483  0.53288307  0.46884611
   0.53729285  0.44219954  0.47188893
   0.60662370  0.58409052  0.50748896
   0.46835275  0.38906354  0.43432601
   0.34099050  0.39339658  0.58230306
   0.52938431  0.43798841  0.65368367
   0.48055891  0.32631080  0.63271985
   0.32267971  0.55177699  0.55566771
   0.50403656  0.57802535  0.65026091
   0.43360574  0.66482554  0.59821291
   0.48253130  0.56951619  0.43752770
   0.59168769  0.40661867  0.50457481
   0.66333015  0.62674110  0.54009527
   0.41133759  0.34384321  0.40610743
Direct configuration=    20
   0.38180787  0.53169072  0.59326426
   0.39442474  0.43657700  0.60627788
   0.47133441  0.39832138  0.63363738
   0.44234361  0.59469762  0.61484621
   0.53764513  0.53307969  0.46877385
   0.53802938  0.44240519  0.47176158
   0.60722708  0.58440021  0.50729959
   0.46921865  0.38932152  0.43404018
   0.34083112  0.39326621  0.58239828
   0.52885521  0.43771517  0.65487127
   0.47998346  0.32612467  0.63346617
   0.32242349  0.55166450  0.55578773
   0.50354795  0.57829527  0.65067270
   0.43335817  0.66477070  0.59769276
   0.48280652  0.56962494  0.43797509
   0.59226515  0.40679309  0.50469790
   0.66407959  0.62708771  0.53974030
   0.41230374  0.34413263  0.40532734
Direct configuration=    21
   0.38171473  0.53165116  0.59329535
   0.39432754  0.43653524  0.60636920
   0.47113079  0.39824448  0.63394551
   0.44219590  0.59471321  0.61485156
   0.53791039  0.53317199  0.46879805
   0.53835403  0.44250604  0.47173636
   0.60751713  0.58454080  0.50722547
   0.46958590  0.38943134  0.43390272
   0.34076773  0.39322199  0.58242148
   0.52859988  0.43758061  0.65540792
   0.47971098  0.32604140  0.63382575
   0.32231951  0.55159766  0.55582941
   0.50333882  0.57841281  0.65081957
   0.43323323  0.66473302  0.59748424
   0.48296499  0.56967271  0.43815653
   0.59254184  0.40689108  0.50473690
   0.66440025  0.62724331  0.53954367
   0.41278299  0.34429181  0.40498772
Direct configuration=    22
   0.38149031  0.53157033  0.59337445
   0.39410331  0.43643060  0.60656790
   0.47065680  0.39806184  0.63469089
   0.44183690  0.59476436  0.61488610
   0.53858425  0.53338312  0.46876458
   0.53914146  0.44273427  0.47162253
   0.60819212  0.58487713  0.50703130
   0.47048480  0.38969651  0.43357515
   0.34060105  0.39309610  0.58251100
   0.52801468  0.43727592  0.65668566
   0.47907406  0.32583867  0.63465691
   0.32204858  0.55146039  0.55595688
   0.50282616  0.57870074  0.65122593
   0.43294762  0.66466369  0.59695844
   0.48329987  0.56978789  0.43859958
   0.59318341  0.40709277  0.50484032
   0.66517929  0.62760973  0.53912002
   0.41386771  0.34463758  0.40416074
Direct configuration=    23
   0.38126616  0.53148120  0.59346851
   0.39387245  0.43633295  0.60679741
   0.47017318  0.39787709  0.63542778
   0.44148446  0.59480529  0.61491482
   0.53921531  0.53359222  0.46879779
   0.53990245  0.44296245  0.47153707
   0.60885287  0.58517761  0.50682772
   0.47138121  0.38998674  0.43324795
   0.34044363  0.39299543  0.58258378
   0.52741231  0.43695868  0.65794248
   0.47841599  0.32563530  0.63552296
   0.32178693  0.55129936  0.55608371
   0.50234065  0.57898293  0.65157095
   0.43263188  0.66458032  0.59649888
   0.48369615  0.56989775  0.43896666
   0.59384986  0.40731076  0.50488965
   0.66594123  0.62798881  0.53866027
   0.41495382  0.34499089  0.40333884
Direct configuration=    24
   0.38112436  0.53142444  0.59354540
   0.39372477  0.43627634  0.60696108
   0.46986756  0.39775955  0.63588745
   0.44126561  0.59482819  0.61494047
   0.53958678  0.53371180  0.46883084
   0.54036696  0.44310137  0.47148650
   0.60928237  0.58535999  0.50670659
   0.47190066  0.39015228  0.43301557
   0.34034564  0.39294711  0.58263372
   0.52703245  0.43675785  0.65870376
   0.47798903  0.32550635  0.63608638
   0.32162016  0.55118633  0.55617722
   0.50205733  0.57915884  0.65175712
   0.43240748  0.66452798  0.59626615
   0.48398407  0.56996233  0.43911981
   0.59428327  0.40744519  0.50486912
   0.66637432  0.62821029  0.53834381
   0.41564616  0.34523591  0.40284272
Direct configuration=    25
   0.38114195  0.53143146  0.59354871
   0.39374201  0.43628708  0.60695438
   0.46990516  0.39777352  0.63582584
   0.44129506  0.59482345  0.61494335
   0.53952669  0.53368967  0.46883663
   0.54029166  0.44307622  0.47149088
   0.60920143  0.58530466  0.50670710
   0.47184637  0.39015342  0.43304912
   0.34035854  0.39296436  0.58263150
   0.52708076  0.43678285  0.65858505
   0.47803373  0.32552219  0.63602882
   0.32163982  0.55119219  0.55617607
   0.50210966  0.57913566  0.65171138
   0.43241626  0.66453563  0.59633812
   0.48397636  0.56995113  0.43904181
   0.59423896  0.40742532  0.50483325
   0.66631563  0.62819240  0.53838206
   0.41552573  0.34519106  0.40290089
Direct configuration=    26
   0.38110488  0.53141691  0.59357726
   0.39370291  0.43627448  0.60700420
   0.46982624  0.39774238  0.63594199
   0.44123944  0.59482826  0.61495534
   0.53961343  0.53371396  0.46884584
   0.54040305  0.44310767  0.47147562
   0.60930796  0.58534178  0.50667459
   0.47196969  0.39019577  0.43298274
   0.34033238  0.39295835  0.58264911
   0.52698519  0.43673196  0.65876491
   0.47791799  0.32548845  0.63618193
   0.32159488  0.55115834  0.55620912
   0.50204797  0.57918038  0.65174658
   0.43234499  0.66452463  0.59630682
   0.48406776  0.56996568  0.43904054
   0.59435630  0.40745623  0.50480167
   0.66641271  0.62824659  0.53829445
   0.41569459  0.34525599  0.40277713
Direct configuration=    27
   0.38079753  0.53130809  0.59388766
   0.39337659  0.43619121  0.60747557
   0.46918196  0.39748143  0.63689036
   0.44079224  0.59487225  0.61510742
   0.54027536  0.53386730  0.46890618
   0.54124548  0.44331701  0.47130955
   0.61007674  0.58551320  0.50634724
   0.47296172  0.39057872  0.43240524
   0.34010855  0.39296100  0.58284011
   0.52623469  0.43632871  0.66010098
   0.47693020  0.32520931  0.63749435
   0.32121149  0.55085068  0.55656110
   0.50164067  0.57954096  0.65193615
   0.43165442  0.66446177  0.59628686
   0.48495083  0.57006980  0.43870032
   0.59536071  0.40767436  0.50433405
   0.66712783  0.62869728  0.53756693
   0.41690212  0.34573689  0.40176799
Direct configuration=    28
   0.38084845  0.53132807  0.59383759
   0.39343391  0.43620206  0.60739258
   0.46928834  0.39752728  0.63673691
   0.44086150  0.59486994  0.61509133
   0.54018073  0.53383972  0.46886351
   0.54110707  0.44327351  0.47131564
   0.60992731  0.58547390  0.50638998
   0.47282376  0.39052764  0.43251084
   0.34013676  0.39295487  0.58282312
   0.52636759  0.43639941  0.65987805
   0.47709391  0.32525362  0.63727636
   0.32126771  0.55090764  0.55651441
   0.50170407  0.57948521  0.65191989
   0.43176389  0.66448182  0.59629156
   0.48480059  0.57005130  0.43875019
   0.59519210  0.40762709  0.50440894
   0.66703175  0.62863414  0.53770964
   0.41667175  0.34563841  0.40191718
Direct configuration=    29
   0.38079902  0.53131177  0.59389399
   0.39338262  0.43618822  0.60746937
   0.46918606  0.39748638  0.63688944
   0.44078756  0.59488011  0.61512587
   0.54028699  0.53385646  0.46884850
   0.54124164  0.44330061  0.47127510
   0.61005922  0.58550782  0.50634368
   0.47295794  0.39056920  0.43240217
   0.34009384  0.39295571  0.58286747
   0.52625537  0.43633799  0.66007818
   0.47693217  0.32520757  0.63749114
   0.32119986  0.55085957  0.55658578
   0.50164418  0.57954496  0.65195109
   0.43164049  0.66447977  0.59631057
   0.48495071  0.57006506  0.43866214
   0.59535388  0.40765161  0.50431359
   0.66712751  0.62869407  0.53759121
   0.41686586  0.34572700  0.40176193
Direct configuration=    30
   0.38076814  0.53130393  0.59393328
   0.39335166  0.43617865  0.60751594
   0.46912406  0.39746125  0.63698783
   0.44073779  0.59489196  0.61515737
   0.54036515  0.53386344  0.46881205
   0.54132532  0.44330921  0.47122992
   0.61012156  0.58551588  0.50630277
   0.47306095  0.39060544  0.43233972
   0.34005941  0.39295406  0.58290999
   0.52619289  0.43630250  0.66019527
   0.47682917  0.32517818  0.63762814
   0.32115091  0.55083329  0.55664453
   0.50160707  0.57958570  0.65197778
   0.43155413  0.66448638  0.59633575
   0.48504775  0.57007145  0.43858616
   0.59545429  0.40765652  0.50424182
   0.66719831  0.62873857  0.53753379
   0.41695379  0.34576475  0.40165078
Direct configuration=    31
   0.38073245  0.53129490  0.59397867
   0.39331596  0.43616782  0.60757104
   0.46905174  0.39743228  0.63710182
   0.44068044  0.59490520  0.61519324
   0.54045320  0.53387122  0.46877149
   0.54142559  0.44332191  0.47118019
   0.61020830  0.58553558  0.50626215
   0.47315971  0.39063118  0.43225547
   0.34002028  0.39295246  0.58295810
   0.52611961  0.43626078  0.66033178
   0.47671000  0.32514442  0.63778720
   0.32109493  0.55080266  0.55671163
   0.50156378  0.57963276  0.65200757
   0.43145471  0.66449289  0.59636457
   0.48516037  0.57007869  0.43850007
   0.59557032  0.40766361  0.50415966
   0.66726789  0.62878089  0.53745949
   0.41707460  0.34582272  0.40153177
Direct configuration=    32
   0.38004966  0.53112484  0.59485642
   0.39263235  0.43596102  0.60863809
   0.46765996  0.39687605  0.63929621
   0.43956990  0.59516462  0.61589401
   0.54217312  0.53402293  0.46797626
   0.54333797  0.44354762  0.47018742
   0.61178285  0.58583708  0.50541409
   0.47520622  0.39123861  0.43070176
   0.33926196  0.39292302  0.58390274
   0.52471251  0.43545593  0.66294870
   0.47441340  0.32449776  0.64085786
   0.32001226  0.55021747  0.55802000
   0.50072604  0.58054514  0.65258309
   0.42952731  0.66462143  0.59694329
   0.48733969  0.57021132  0.43681638
   0.59780048  0.40779144  0.50256108
   0.66867562  0.62964884  0.53608294
   0.41925978  0.34683718  0.39917013
Direct configuration=    33
   0.38020257  0.53116946  0.59467270
   0.39278831  0.43600982  0.60841393
   0.46797104  0.39700427  0.63881416
   0.43979898  0.59512325  0.61576853
   0.54182128  0.53397710  0.46808690
   0.54293171  0.44348234  0.47035155
   0.61143576  0.58576185  0.50559048
   0.47474260  0.39108011  0.43101267
   0.33941476  0.39293113  0.58374234
   0.52503879  0.43563989  0.66234238
   0.47491706  0.32465036  0.64019618
   0.32024057  0.55035665  0.55776287
   0.50089564  0.58036304  0.65247942
   0.42991884  0.66460925  0.59686507
   0.48688664  0.57016642  0.43712728
   0.59730519  0.40773849  0.50287545
   0.66834074  0.62943386  0.53641879
   0.41875827  0.34661321  0.39968133
Direct configuration=    34
   0.38012157  0.53115273  0.59478410
   0.39270776  0.43598695  0.60854831
   0.46780657  0.39694059  0.63907910
   0.43965600  0.59516282  0.61586938
   0.54204446  0.53398663  0.46795388
   0.54316898  0.44350079  0.47019879
   0.61162111  0.58578964  0.50547873
   0.47498949  0.39114610  0.43081181
   0.33931499  0.39292863  0.58388414
   0.52487885  0.43554627  0.66264006
   0.47463891  0.32457739  0.64057511
   0.32010388  0.55029228  0.55793958
   0.50078682  0.58048357  0.65256129
   0.42966693  0.66463426  0.59696458
   0.48716399  0.57017327  0.43688877
   0.59757072  0.40773925  0.50266084
   0.66850022  0.62952805  0.53627334
   0.41900298  0.34672995  0.39938725
Direct configuration=    35
   0.38011881  0.53115886  0.59479988
   0.39270600  0.43598965  0.60856564
   0.46780251  0.39694254  0.63909631
   0.43963245  0.59517958  0.61590277
   0.54208351  0.53397201  0.46788290
   0.54319554  0.44348736  0.47013451
   0.61163049  0.58578079  0.50545817
   0.47499714  0.39113134  0.43077141
   0.33929531  0.39293037  0.58393930
   0.52488618  0.43554663  0.66262926
   0.47462040  0.32458087  0.64061290
   0.32008588  0.55029896  0.55798152
   0.50076783  0.58050854  0.65258726
   0.42961925  0.66465235  0.59701998
   0.48720509  0.57015892  0.43681586
   0.59758221  0.40771525  0.50261213
   0.66848744  0.62951265  0.53629750
   0.41899132  0.34673178  0.39935913
Direct configuration=    36
   0.38002907  0.53116117  0.59495892
   0.39262258  0.43597727  0.60875283
   0.46763116  0.39689017  0.63940307
   0.43941749  0.59527079  0.61611020
   0.54242212  0.53393296  0.46752031
   0.54350920  0.44345784  0.46977426
   0.61183977  0.58577589  0.50528345
   0.47525280  0.39114485  0.43044195
   0.33913489  0.39293403  0.58425680
   0.52476063  0.43545994  0.66287477
   0.47429683  0.32452139  0.64109779
   0.31989702  0.55026028  0.55828569
   0.50060189  0.58070493  0.65275168
   0.42922079  0.66473676  0.59729975
   0.48760163  0.57011740  0.43634872
   0.59786996  0.40763689  0.50224864
   0.66860032  0.62955203  0.53623912
   0.41919396  0.34685334  0.39899092
Direct configuration=    37
   0.38004375  0.53116800  0.59494383
   0.39263795  0.43598405  0.60873371
   0.46766460  0.39690507  0.63935543
   0.43943469  0.59527137  0.61610638
   0.54239571  0.53392146  0.46751038
   0.54347187  0.44344469  0.46977037
   0.61180576  0.58576261  0.50529301
   0.47521234  0.39113035  0.43046427
   0.33914473  0.39293580  0.58425791
   0.52480018  0.43548027  0.66280524
   0.47434644  0.32453798  0.64103935
   0.31991595  0.55027814  0.55827028
   0.50061529  0.58069307  0.65274866
   0.42924631  0.66474216  0.59731144
   0.48756380  0.57010800  0.43635882
   0.59781876  0.40762368  0.50226807
   0.66856138  0.62952480  0.53628540
   0.41912975  0.34682424  0.39903411
Direct configuration=    38
   0.38002896  0.53116865  0.59496942
   0.39262442  0.43598252  0.60876393
   0.46763780  0.39689694  0.63940403
   0.43939948  0.59528652  0.61613992
   0.54245058  0.53391376  0.46745062
   0.54352296  0.44343893  0.46971096
   0.61184232  0.58576166  0.50526355
   0.47525020  0.39113039  0.43040663
   0.33911797  0.39293672  0.58431139
   0.52478154  0.43546660  0.66284370
   0.47429464  0.32452827  0.64111916
   0.31988502  0.55027265  0.55831969
   0.50058844  0.58072552  0.65277589
   0.42917950  0.66475694  0.59736008
   0.48762784  0.57010061  0.43628154
   0.59786433  0.40761040  0.50220897
   0.66857755  0.62952943  0.53627760
   0.41916463  0.34684546  0.39897515
Direct configuration=    39
   0.38002089  0.53117164  0.59498665
   0.39261792  0.43598343  0.60878394
   0.46762561  0.39689502  0.63943086
   0.43937594  0.59529925  0.61616733
   0.54248800  0.53390450  0.46739714
   0.54355348  0.44343009  0.46965910
   0.61186077  0.58575516  0.50524018
   0.47527123  0.39112758  0.43036607
   0.33909910  0.39293809  0.58435557
   0.52477861  0.43546158  0.66285437
   0.47426750  0.32452539  0.64116713
   0.31986553  0.55027386  0.55835547
   0.50057090  0.58074828  0.65279689
   0.42913251  0.66477074  0.59740401
   0.48766851  0.57009174  0.43622164
   0.59788605  0.40759567  0.50216684
   0.66857992  0.62952551  0.53628552
   0.41917082  0.34685168  0.39893922
Direct configuration=    40
   0.38000207  0.53117668  0.59502410
   0.39260225  0.43598428  0.60882760
   0.46759599  0.39688870  0.63949234
   0.43932442  0.59532563  0.61622421
   0.54256922  0.53388620  0.46728751
   0.54362220  0.44341361  0.46955231
   0.61190640  0.58574498  0.50519128
   0.47531898  0.39112280  0.43027750
   0.33905799  0.39294072  0.58444802
   0.52476719  0.43544809  0.66288595
   0.47420386  0.32451702  0.64127579
   0.31982189  0.55027402  0.55843228
   0.50053245  0.58079754  0.65284089
   0.42903009  0.66479903  0.59749483
   0.48775863  0.57007427  0.43609480
   0.59793807  0.40756657  0.50207597
   0.66858894  0.62951994  0.53629514
   0.41919454  0.34687022  0.39885908
Direct configuration=    41
   0.37997997  0.53118365  0.59506949
   0.39258456  0.43598612  0.60888030
   0.46756306  0.39688250  0.63956336
   0.43926103  0.59535902  0.61629542
   0.54266870  0.53386123  0.46714681
   0.54370483  0.44339115  0.46941641
   0.61196112  0.58572994  0.50512929
   0.47536904  0.39111134  0.43016350
   0.33900625  0.39294440  0.58456674
   0.52475840  0.43543314  0.66291670
   0.47412929  0.32450840  0.64140773
   0.31976814  0.55027694  0.55852826
   0.50048572  0.58085863  0.65289570
   0.42890140  0.66483617  0.59761430
   0.48786783  0.57005029  0.43593443
   0.59799639  0.40752758  0.50196302
   0.66859562  0.62950897  0.53631300
   0.41922129  0.34689379  0.39876404
Direct configuration=    42
   0.37978482  0.53123522  0.59545521
   0.39242404  0.43599440  0.60932992
   0.46726064  0.39681687  0.64019306
   0.43872831  0.59563074  0.61688003
   0.54350647  0.53367066  0.46601222
   0.54440984  0.44321881  0.46831010
   0.61243382  0.58561649  0.50461199
   0.47586211  0.39106627  0.42923794
   0.33857712  0.39297262  0.58552928
   0.52464558  0.43529108  0.66323962
   0.47347244  0.32442165  0.64253929
   0.31931324  0.55028190  0.55932380
   0.50009205  0.58136721  0.65334472
   0.42783165  0.66513161  0.59857055
   0.48879497  0.56986622  0.43462137