19
Lattice="22.9193 0.0 0.0 0.0 17.4129 0.0 0.0 0.0 16.8329" Properties=species:S:1:pos:R:3:momenta:R:3:forces:R:3:magmoms:R:1 energy=-101.25145589 stress="0.00011132040480714523 4.047795926994468e-05 0.00015538341202088774 4.047795926994468e-05 0.00013728090095970524 7.664093858683774e-05 0.00015538341202088774 7.664093858683774e-05 0.00024885138431299724" dipole="_JSON [[0.0, 0.0, 0.0]]" magmom=0.0 free_energy=-101.25145589 pbc="T T T"
N       14.43510586       8.40101514       7.93315309       0.47655556      -0.06082811      -0.24616537       0.79039493       0.98255349      -1.22858268       0.00000000
C       10.88709869       9.11868170       8.46924228      -0.68006123      -0.58608188       0.46534586       0.17968829       0.67501654       1.63308421       0.00000000
C       12.21048394       8.45002619       8.98436622      -0.30926802       0.03452901      -0.18318038      -1.15559915       0.46725483       2.13745696       0.00000000
C        9.70906213       8.18396491       8.40571447       0.19738848       0.02493930       0.08511268      -1.60453104      -0.93306682      -0.55131771       0.00000000
C       13.48014477       9.21869324       8.68830216      -0.31414896       0.52657636       0.02942413       1.03108943      -0.04198026       1.37441781       0.00000000
C        8.36567510       8.88950963       8.08203573      -0.30750762       0.02338295      -0.46878647      -0.30995855      -1.01958978       0.93579360       0.00000000
H       10.53998885       9.99590403       9.17105742      -0.02774123      -0.06619867      -0.09888239       0.98694196      -1.09263489      -1.08270716       0.00000000
H       11.07676937       9.53049486       7.46905148       0.09338060       0.23151605      -0.16153432      -0.11968302       0.16521205      -0.08067741       0.00000000
H       12.32865530       7.40299624       8.66455071      -0.19639609      -0.14073789       0.19090590      -0.17043985       0.16149280      -0.32138752       0.00000000
H       12.11639092       8.39434123      10.12453422       0.24551627       0.27742245       0.26719746      -0.05622967      -0.14613952      -1.08765314       0.00000000
H        9.82574055       7.50180433       7.54279889       0.12633425      -0.13663008       0.08575482       0.45078849      -0.35910545       0.42582534       0.00000000
H        9.45175997       7.57958864       9.33817444       0.04282766       0.03444890       0.04636756       0.97631586       0.44902610      -0.83108208       0.00000000
H       14.03437703       9.57913453       9.61384779       0.15853231       0.04667549      -0.17549777      -0.96461151      -0.13227492      -0.34742455       0.00000000
H       13.28269310      10.12552302       8.12761015       0.06832555      -0.03043416       0.37853428      -0.24957374       0.33054506      -0.41954710       0.00000000
H        8.47990837       9.71967558       7.40286315       0.10150128      -0.05262254       0.33852769      -0.05555703       0.45002592      -0.44252683       0.00000000
H        7.62082745       8.14432551       7.69252723       0.07412396       0.07684527      -0.15807016       0.49286189       0.57125407       0.05558069       0.00000000
H        7.95895408       9.22375813       9.04716049       0.30441834       0.08024388      -0.14540625      -0.20644667       0.47547977      -0.16957233       0.00000000
H       15.12875747       7.97108247       8.54039717      -0.10512243      -0.39718019      -0.29780137      -0.13914342      -0.31763582       0.37066551       0.00000000
H       14.99681898       9.14097902       7.47912294       0.05134131       0.11413387       0.04815412       0.12369278      -0.68543316      -0.37034561       0.00000000
