   18   18 5000    1
  0.1875000E+03  0.1500000E-08  0.1500000E-08  0.1500000E-08  0.1000000E-15
  1.000000000000000E-004
  CAR 
 unknown system                          
     50      1     35
 
  0.0000000E+00  0.0000000E+00  0.0000000E+00  0.1000000E+01
      1        -22.829733   1.000000
      2        -22.470079   1.000000
      3        -21.723115   1.000000
      4        -19.676204   1.000000
      5        -19.606757   1.000000
      6        -16.800429   1.000000
      7        -16.386542   1.000000
      8        -13.881567   1.000000
      9        -13.711393   1.000000
     10        -12.984312   1.000000
     11        -11.781540   1.000000
     12        -11.522928   1.000000
     13        -11.098060   1.000000
     14        -10.485903   1.000000
     15        -10.420905   1.000000
     16         -9.590676   1.000000
     17         -9.276610   1.000000
     18         -8.988948   1.000000
     19         -8.475712   1.000000
     20         -8.406621   1.000000
     21         -8.265745   1.000000
     22         -8.020382   1.000000
     23         -7.861369   1.000000
     24         -7.795460   1.000000
     25         -6.539176   1.000000
     26         -1.314600   0.000000
     27         -0.845489   0.000000
     28         -0.740584   0.000000
     29         -0.676301   0.000000
     30         -0.325626   0.000000
     31         -0.252446   0.000000
     32         -0.071693   0.000000
     33          0.007035   0.000000
     34          0.164916   0.000000
     35          0.436481   0.000000
