 vasp.6.3.2 27Jun22 (build Oct 05 2023 17:59:42) gamma-only                     
  
 POSCAR found type information on POSCAR C H N 
 08/POSCAR found :  3 types and      18 ions
 scaLAPACK will be used
 -----------------------------------------------------------------------------
|                                                                             |
|               ----> ADVICE to this user running VASP <----                  |
|                                                                             |
|     You have a (more or less) 'large supercell' and for larger cells it     |
|     might be more efficient to use real-space projection operators.         |
|     Therefore, try LREAL= Auto in the INCAR file.                           |
|     Mind: For very accurate calculation, you might also keep the            |
|     reciprocal projection scheme (i.e. LREAL=.FALSE.).                      |
|                                                                             |
 -----------------------------------------------------------------------------

 LDA part: xc-table for Pade appr. of Perdew
 POSCAR found type information on POSCAR C H N 
 00/POSCAR found :  3 types and      18 ions
 POSCAR found type information on POSCAR C H N 
 10/POSCAR found :  3 types and      18 ions
 Jacobian:    24.2830561029085     
 POSCAR found type information on POSCAR C H N 
 00/POSCAR found :  3 types and      18 ions
 POSCAR found type information on POSCAR C H N 
 10/POSCAR found :  3 types and      18 ions
 POSCAR, INCAR and KPOINTS ok, starting setup
 FFT: planning ... GRIDC
 FFT: planning ... GRID_SOFT
 FFT: planning ... GRID
 WAVECAR not read
 entering main loop
       N       E                     dE             d eps       ncg     rms          rms(c)
DAV:   1     0.442899750752E+03    0.44290E+03   -0.12847E+04    86   0.725E+02
DAV:   2     0.894799074582E+02   -0.35342E+03   -0.33294E+03   124   0.142E+02
DAV:   3    -0.103177085723E+03   -0.19266E+03   -0.19216E+03    84   0.112E+02
DAV:   4    -0.126771368233E+03   -0.23594E+02   -0.23488E+02    92   0.558E+01
DAV:   5    -0.127230605297E+03   -0.45924E+00   -0.45190E+00    92   0.869E+00    0.183E+01
RMM:   6    -0.118292737994E+03    0.89379E+01   -0.12660E+01    70   0.139E+01    0.101E+01
RMM:   7    -0.116108847535E+03    0.21839E+01   -0.98726E+00    70   0.121E+01    0.433E+00
RMM:   8    -0.115939991354E+03    0.16886E+00   -0.10854E+00    71   0.476E+00    0.239E+00
RMM:   9    -0.115858960042E+03    0.81031E-01   -0.35149E-01    71   0.245E+00    0.443E-01
RMM:  10    -0.115869258401E+03   -0.10298E-01   -0.81997E-02    82   0.108E+00    0.274E-01
RMM:  11    -0.115881828767E+03   -0.12570E-01   -0.29829E-02    70   0.725E-01    0.286E-01
RMM:  12    -0.115881127173E+03    0.70159E-03   -0.38921E-03    71   0.295E-01    0.144E-01
RMM:  13    -0.115897100588E+03   -0.15973E-01   -0.18159E-02    70   0.449E-01    0.132E-01
RMM:  14    -0.115896384924E+03    0.71566E-03   -0.24093E-03    70   0.202E-01    0.758E-02
RMM:  15    -0.115904880144E+03   -0.84952E-02   -0.40572E-03    70   0.224E-01    0.621E-02
RMM:  16    -0.115906599885E+03   -0.17197E-02   -0.10963E-03    76   0.101E-01    0.401E-02
RMM:  17    -0.115908082981E+03   -0.14831E-02   -0.51167E-04    70   0.789E-02    0.205E-02
RMM:  18    -0.115909372934E+03   -0.12900E-02   -0.18749E-04    67   0.506E-02    0.205E-02
RMM:  19    -0.115909826711E+03   -0.45378E-03   -0.51502E-05    57   0.232E-02    0.919E-03
RMM:  20    -0.115910039794E+03   -0.21308E-03   -0.45524E-05    59   0.226E-02    0.404E-03
RMM:  21    -0.115910137474E+03   -0.97679E-04   -0.89192E-06    45   0.113E-02    0.155E-03
RMM:  22    -0.115910162611E+03   -0.25137E-04   -0.28674E-06    37   0.615E-03    0.138E-03
RMM:  23    -0.115910181436E+03   -0.18826E-04   -0.20295E-06    42   0.558E-03    0.139E-03
RMM:  24    -0.115910188875E+03   -0.74391E-05   -0.57676E-07    28   0.346E-03
   1 F= -.11615210E+03 E0= -.11615210E+03  d E =-.116152E+03
 BRION: g(F)=  0.700E+00 g(S)=  0.000E+00
 bond charge predicted
       N       E                     dE             d eps       ncg     rms          rms(c)
DAV:   1    -0.115928795163E+03   -0.18614E-01   -0.49114E-01    89   0.405E+00    0.189E-01
RMM:   2    -0.115928939058E+03   -0.14389E-03   -0.88962E-03    70   0.519E-01    0.115E-01
RMM:   3    -0.115928859787E+03    0.79271E-04   -0.16115E-03    70   0.225E-01    0.570E-02
RMM:   4    -0.115928908777E+03   -0.48990E-04   -0.65807E-04    71   0.129E-01    0.279E-02
RMM:   5    -0.115928913528E+03   -0.47510E-05   -0.90767E-05    73   0.520E-02
   2 F= -.11617077E+03 E0= -.11617077E+03  d E =-.186707E-01
 BRION: g(F)=  0.533E+00 g(S)=  0.000E+00 retain N=  1 mean eig= 1.03
 eig:   1.026
 bond charge predicted
       N       E                     dE             d eps       ncg     rms          rms(c)
DAV:   1    -0.115939763341E+03   -0.10855E-01   -0.30582E-01    76   0.322E+00    0.215E-01
RMM:   2    -0.115939528444E+03    0.23490E-03   -0.59927E-03    70   0.436E-01    0.114E-01
RMM:   3    -0.115939415315E+03    0.11313E-03   -0.10131E-03    70   0.177E-01    0.560E-02
RMM:   4    -0.115939442939E+03   -0.27624E-04   -0.57072E-04    70   0.113E-01    0.178E-02
RMM:   5    -0.115939441404E+03    0.15346E-05   -0.64940E-05    60   0.441E-02
   3 F= -.11618138E+03 E0= -.11618138E+03  d E =-.106136E-01
 BRION: g(F)=  0.468E+00 g(S)=  0.000E+00 retain N=  2 mean eig= 1.17
 eig:   1.166  1.166
 bond charge predicted
       N       E                     dE             d eps       ncg     rms          rms(c)
DAV:   1    -0.115954331700E+03   -0.14889E-01   -0.69481E-01    76   0.465E+00    0.232E-01
RMM:   2    -0.115954540017E+03   -0.20832E-03   -0.12124E-02    70   0.570E-01    0.132E-01
RMM:   3    -0.115954505101E+03    0.34916E-04   -0.20184E-03    70   0.248E-01    0.761E-02
RMM:   4    -0.115954580940E+03   -0.75839E-04   -0.68330E-04    70   0.135E-01    0.412E-02
RMM:   5    -0.115954609476E+03   -0.28536E-04   -0.11341E-04    72   0.595E-02    0.159E-02
RMM:   6    -0.115954621498E+03   -0.12022E-04   -0.38163E-05    54   0.316E-02    0.504E-03
RMM:   7    -0.115954624602E+03   -0.31036E-05   -0.59246E-06    45   0.125E-02
   4 F= -.11619646E+03 E0= -.11619646E+03  d E =-.150715E-01
 BRION: g(F)=  0.335E+00 g(S)=  0.000E+00 retain N=  3 mean eig= 2.89
 eig:   3.788  3.788  1.082
 bond charge predicted
       N       E                     dE             d eps       ncg     rms          rms(c)
DAV:   1    -0.115973853780E+03   -0.19232E-01   -0.24640E+00    70   0.895E+00    0.450E-01
RMM:   2    -0.115974868439E+03   -0.10147E-02   -0.31274E-02    70   0.999E-01    0.227E-01
RMM:   3    -0.115975093626E+03   -0.22519E-03   -0.55186E-03    70   0.417E-01    0.109E-01
RMM:   4    -0.115975316445E+03   -0.22282E-03   -0.15864E-03    74   0.204E-01    0.552E-02
RMM:   5    -0.115975369508E+03   -0.53063E-04   -0.27790E-04    75   0.920E-02    0.189E-02
RMM:   6    -0.115975384268E+03   -0.14760E-04   -0.66624E-05    59   0.424E-02    0.112E-02
RMM:   7    -0.115975396041E+03   -0.11773E-04   -0.13815E-05    46   0.183E-02    0.235E-03
RMM:   8    -0.115975401480E+03   -0.54393E-05   -0.40753E-06    45   0.100E-02
   5 F= -.11621722E+03 E0= -.11621722E+03  d E =-.207624E-01
 BRION: g(F)=  0.203E+00 g(S)=  0.000E+00 retain N=  4 mean eig= 4.72
 eig:   7.757  7.757  1.683  1.683
 bond charge predicted
       N       E                     dE             d eps       ncg     rms          rms(c)
DAV:   1    -0.115976204032E+03   -0.80799E-03   -0.26905E-02    92   0.944E-01    0.383E-02
RMM:   2    -0.115976219243E+03   -0.15211E-04   -0.41491E-04    70   0.117E-01    0.237E-02
RMM:   3    -0.115976219235E+03    0.83428E-08   -0.82756E-05    70   0.489E-02
   6 F= -.11621801E+03 E0= -.11621801E+03  d E =-.793354E-03
 BRION: g(F)=  0.170E+00 g(S)=  0.000E+00 retain N=  4 mean eig= 4.31
 eig:   6.496  6.496  1.075  3.165
 bond charge predicted
       N       E                     dE             d eps       ncg     rms          rms(c)
DAV:   1    -0.115980137625E+03   -0.39184E-02   -0.15871E-01    70   0.217E+00    0.103E-01
RMM:   2    -0.115980249845E+03   -0.11222E-03   -0.25443E-03    70   0.268E-01    0.560E-02
RMM:   3    -0.115980289916E+03   -0.40071E-04   -0.39988E-04    70   0.113E-01    0.270E-02
RMM:   4    -0.115980308620E+03   -0.18704E-04   -0.10196E-04    69   0.562E-02    0.103E-02
RMM:   5    -0.115980313389E+03   -0.47684E-05   -0.28311E-05    52   0.270E-02
   7 F= -.11622209E+03 E0= -.11622209E+03  d E =-.407439E-02
 BRION: g(F)=  0.156E+00 g(S)=  0.000E+00 retain N=  5 mean eig= 3.80
 eig:   6.798  6.798  0.860  2.567  1.979
 bond charge predicted
       N       E                     dE             d eps       ncg     rms          rms(c)
DAV:   1    -0.115986997781E+03   -0.66892E-02   -0.53155E-01    70   0.383E+00    0.181E-01
RMM:   2    -0.115987475088E+03   -0.47731E-03   -0.83594E-03    70   0.461E-01    0.967E-02
RMM:   3    -0.115987587458E+03   -0.11237E-03   -0.12797E-03    70   0.196E-01    0.511E-02
RMM:   4    -0.115987639985E+03   -0.52527E-04   -0.31553E-04    71   0.939E-02    0.259E-02
RMM:   5    -0.115987657879E+03   -0.17894E-04   -0.88265E-05    61   0.462E-02    0.984E-03
RMM:   6    -0.115987664625E+03   -0.67456E-05   -0.15776E-05    47   0.213E-02
   8 F= -.11622935E+03 E0= -.11622935E+03  d E =-.726028E-02
 BRION: g(F)=  0.996E-01 g(S)=  0.000E+00 retain N=  4 mean eig= 4.52
 eig:   7.782  7.782  0.481  2.051
 bond charge predicted
       N       E                     dE             d eps       ncg     rms          rms(c)
DAV:   1    -0.115990590737E+03   -0.29329E-02   -0.17908E-01    76   0.229E+00    0.860E-02
RMM:   2    -0.115990748909E+03   -0.15817E-03   -0.27607E-03    70   0.272E-01    0.523E-02
RMM:   3    -0.115990794420E+03   -0.45510E-04   -0.43266E-04    70   0.116E-01    0.217E-02
RMM:   4    -0.115990811588E+03   -0.17168E-04   -0.10726E-04    67   0.565E-02    0.804E-03
RMM:   5    -0.115990816120E+03   -0.45322E-05   -0.27698E-05    52   0.266E-02
   9 F= -.11623248E+03 E0= -.11623248E+03  d E =-.313318E-02
 BRION: g(F)=  0.689E-01 g(S)=  0.000E+00 retain N=  3 mean eig= 4.34
 eig:   5.625  5.625  1.774
 bond charge predicted
       N       E                     dE             d eps       ncg     rms          rms(c)
DAV:   1    -0.115994278009E+03   -0.34664E-02   -0.21327E-01    70   0.241E+00    0.104E-01
RMM:   2    -0.115994439206E+03   -0.16120E-03   -0.35828E-03    70   0.295E-01    0.620E-02
RMM:   3    -0.115994479167E+03   -0.39961E-04   -0.53243E-04    71   0.125E-01    0.354E-02
RMM:   4    -0.115994502641E+03   -0.23474E-04   -0.15647E-04    68   0.648E-02    0.136E-02
RMM:   5    -0.115994509930E+03   -0.72891E-05   -0.36429E-05    54   0.291E-02
  10 F= -.11623612E+03 E0= -.11623612E+03  d E =-.363953E-02
 BRION: g(F)=  0.594E-01 g(S)=  0.000E+00 retain N=  4 mean eig= 4.33
 eig:   6.498  6.498  2.162  2.162
 bond charge predicted
       N       E                     dE             d eps       ncg     rms          rms(c)
DAV:   1    -0.115996104418E+03   -0.16018E-02   -0.65481E-02    70   0.134E+00    0.727E-02
RMM:   2    -0.115996144837E+03   -0.40419E-04   -0.13408E-03    70   0.177E-01    0.414E-02
RMM:   3    -0.115996147461E+03   -0.26239E-05   -0.20385E-04    66   0.764E-02    0.239E-02
RMM:   4    -0.115996153340E+03   -0.58794E-05   -0.74904E-05    57   0.425E-02
  11 F= -.11623779E+03 E0= -.11623779E+03  d E =-.167604E-02
 BRION: g(F)=  0.467E-01 g(S)=  0.000E+00 retain N=  2 mean eig= 2.39
 eig:   2.390  2.390
 bond charge predicted
       N       E                     dE             d eps       ncg     rms          rms(c)
DAV:   1    -0.115999965527E+03   -0.38181E-02   -0.19639E-01    70   0.229E+00    0.943E-02
RMM:   2    -0.116000133130E+03   -0.16760E-03   -0.29967E-03    70   0.272E-01    0.554E-02
RMM:   3    -0.116000190651E+03   -0.57521E-04   -0.43979E-04    70   0.115E-01    0.245E-02
RMM:   4    -0.116000209896E+03   -0.19245E-04   -0.10616E-04    62   0.545E-02    0.978E-03
RMM:   5    -0.116000214949E+03   -0.50527E-05   -0.28893E-05    54   0.253E-02
  12 F= -.11624183E+03 E0= -.11624183E+03  d E =-.403458E-02
 BRION: g(F)=  0.403E-01 g(S)=  0.000E+00 retain N=  2 mean eig= 2.54
 eig:   1.927  3.149
 bond charge predicted
       N       E                     dE             d eps       ncg     rms          rms(c)
DAV:   1    -0.116003166183E+03   -0.29563E-02   -0.11452E-01    70   0.176E+00    0.700E-02
RMM:   2    -0.116003264423E+03   -0.98240E-04   -0.17112E-03    70   0.207E-01    0.412E-02
RMM:   3    -0.116003301375E+03   -0.36952E-04   -0.25698E-04    70   0.883E-02    0.166E-02
RMM:   4    -0.116003312640E+03   -0.11266E-04   -0.63669E-05    57   0.419E-02    0.630E-03
RMM:   5    -0.116003316595E+03   -0.39552E-05   -0.13785E-05    46   0.188E-02
  13 F= -.11624492E+03 E0= -.11624492E+03  d E =-.309470E-02
 BRION: g(F)=  0.378E-01 g(S)=  0.000E+00 retain N=  3 mean eig= 4.45
 eig:   1.160  6.100  6.100
 bond charge predicted
       N       E                     dE             d eps       ncg     rms          rms(c)
DAV:   1    -0.116006209742E+03   -0.28971E-02   -0.11502E-01    70   0.177E+00    0.717E-02
RMM:   2    -0.116006305997E+03   -0.96254E-04   -0.17088E-03    70   0.208E-01    0.416E-02
RMM:   3    -0.116006342345E+03   -0.36349E-04   -0.25709E-04    70   0.883E-02    0.176E-02
RMM:   4    -0.116006353249E+03   -0.10904E-04   -0.61743E-05    56   0.421E-02    0.681E-03
RMM:   5    -0.116006357121E+03   -0.38724E-05   -0.16144E-05    48   0.196E-02
  14 F= -.11624795E+03 E0= -.11624795E+03  d E =-.302913E-02
 BRION: g(F)=  0.363E-01 g(S)=  0.000E+00 retain N=  3 mean eig= 5.07
 eig:   6.749  6.749  1.711
 bond charge predicted
       N       E                     dE             d eps       ncg     rms          rms(c)
DAV:   1    -0.116010692508E+03   -0.43393E-02   -0.31767E-01    70   0.292E+00    0.119E-01
RMM:   2    -0.116010965239E+03   -0.27273E-03   -0.47789E-03    70   0.343E-01    0.694E-02
RMM:   3    -0.116011053488E+03   -0.88250E-04   -0.70605E-04    70   0.145E-01    0.319E-02
RMM:   4    -0.116011083178E+03   -0.29690E-04   -0.17238E-04    67   0.695E-02    0.131E-02
RMM:   5    -0.116011091107E+03   -0.79289E-05   -0.48950E-05    55   0.327E-02
  15 F= -.11625266E+03 E0= -.11625266E+03  d E =-.470248E-02
 BRION: g(F)=  0.339E-01 g(S)=  0.000E+00 retain N=  3 mean eig= 4.91
 eig:   6.592  6.592  1.550
 bond charge predicted
       N       E                     dE             d eps       ncg     rms          rms(c)
DAV:   1    -0.116013442557E+03   -0.23594E-02   -0.91264E-02    70   0.159E+00    0.672E-02
RMM:   2    -0.116013516312E+03   -0.73755E-04   -0.14614E-03    70   0.192E-01    0.395E-02
RMM:   3    -0.116013539969E+03   -0.23657E-04   -0.22204E-04    69   0.820E-02    0.182E-02
RMM:   4    -0.116013549723E+03   -0.97542E-05   -0.60016E-05    55   0.414E-02
  16 F= -.11625512E+03 E0= -.11625512E+03  d E =-.246589E-02
 BRION: g(F)=  0.319E-01 g(S)=  0.000E+00 retain N=  3 mean eig= 2.95
 eig:   3.887  3.887  1.085
 bond charge predicted
       N       E                     dE             d eps       ncg     rms          rms(c)
DAV:   1    -0.116016865977E+03   -0.33260E-02   -0.19869E-01    70   0.230E+00    0.930E-02
RMM:   2    -0.116017037452E+03   -0.17148E-03   -0.30044E-03    70   0.271E-01    0.553E-02
RMM:   3    -0.116017096755E+03   -0.59302E-04   -0.43882E-04    70   0.114E-01    0.245E-02
RMM:   4    -0.116017115136E+03   -0.18381E-04   -0.10471E-04    61   0.537E-02    0.955E-03
RMM:   5    -0.116017121091E+03   -0.59554E-05   -0.29502E-05    54   0.250E-02
  17 F= -.11625867E+03 E0= -.11625867E+03  d E =-.354685E-02
 BRION: g(F)=  0.299E-01 g(S)=  0.000E+00 retain N=  3 mean eig= 5.22
 eig:   7.155  7.155  1.343
 bond charge predicted
       N       E                     dE             d eps       ncg     rms          rms(c)
DAV:   1    -0.116021012353E+03   -0.38972E-02   -0.31112E-01    70   0.288E+00    0.114E-01
RMM:   2    -0.116021294027E+03   -0.28167E-03   -0.46681E-03    70   0.339E-01    0.672E-02
RMM:   3    -0.116021388034E+03   -0.94007E-04   -0.68253E-04    70   0.143E-01    0.273E-02
RMM:   4    -0.116021414580E+03   -0.26546E-04   -0.15898E-04    65   0.676E-02    0.963E-03
RMM:   5    -0.116021423529E+03   -0.89486E-05   -0.49054E-05    55   0.322E-02
  18 F= -.11626295E+03 E0= -.11626295E+03  d E =-.428316E-02
 BRION: g(F)=  0.285E-01 g(S)=  0.000E+00 retain N=  2 mean eig= 7.18
 eig:   7.181  7.181
 bond charge predicted
       N       E                     dE             d eps       ncg     rms          rms(c)
DAV:   1    -0.116024887974E+03   -0.34734E-02   -0.26232E-01    70   0.264E+00    0.103E-01
RMM:   2    -0.116025125797E+03   -0.23782E-03   -0.39602E-03    70   0.311E-01    0.616E-02
RMM:   3    -0.116025205825E+03   -0.80028E-04   -0.58096E-04    70   0.132E-01    0.250E-02
RMM:   4    -0.116025229069E+03   -0.23244E-04   -0.13653E-04    63   0.626E-02    0.878E-03
RMM:   5    -0.116025237598E+03   -0.85293E-05   -0.42124E-05    55   0.299E-02
  19 F= -.11626675E+03 E0= -.11626675E+03  d E =-.379420E-02
 BRION: g(F)=  0.273E-01 g(S)=  0.000E+00 retain N=  2 mean eig= 6.70
 eig:   6.699  6.699
 bond charge predicted
       N       E                     dE             d eps       ncg     rms          rms(c)
DAV:   1    -0.116029718488E+03   -0.44894E-02   -0.53390E-01    70   0.376E+00    0.148E-01
RMM:   2    -0.116030212683E+03   -0.49419E-03   -0.80738E-03    70   0.443E-01    0.879E-02
RMM:   3    -0.116030362196E+03   -0.14951E-03   -0.11741E-03    70   0.187E-01    0.372E-02
RMM:   4    -0.116030409294E+03   -0.47098E-04   -0.27841E-04    71   0.888E-02    0.135E-02
RMM:   5    -0.116030423258E+03   -0.13965E-04   -0.88949E-05    60   0.425E-02    0.696E-03
RMM:   6    -0.116030429406E+03   -0.61475E-05   -0.96503E-06    47   0.177E-02
  20 F= -.11627190E+03 E0= -.11627190E+03  d E =-.515475E-02
 BRION: g(F)=  0.257E-01 g(S)=  0.000E+00 retain N=  2 mean eig= 5.34
 eig:   5.342  5.342
 bond charge predicted
       N       E                     dE             d eps       ncg     rms          rms(c)
DAV:   1    -0.116032439660E+03   -0.20164E-02   -0.10171E-01    70   0.165E+00    0.656E-02
RMM:   2    -0.116032530968E+03   -0.91308E-04   -0.16079E-03    70   0.197E-01    0.397E-02
RMM:   3    -0.116032560166E+03   -0.29198E-04   -0.23356E-04    68   0.833E-02    0.179E-02
RMM:   4    -0.116032572090E+03   -0.11924E-04   -0.58429E-05    55   0.403E-02    0.585E-03
RMM:   5    -0.116032576199E+03   -0.41093E-05   -0.14096E-05    47   0.181E-02
  21 F= -.11627405E+03 E0= -.11627405E+03  d E =-.215055E-02
 BRION: g(F)=  0.248E-01 g(S)=  0.000E+00 retain N=  3 mean eig= 5.65
 eig:   7.739  7.739  1.471
 bond charge predicted
       N       E                     dE             d eps       ncg     rms          rms(c)
DAV:   1    -0.116036945011E+03   -0.43729E-02   -0.60365E-01    70   0.399E+00    0.157E-01
RMM:   2    -0.116037508011E+03   -0.56300E-03   -0.91579E-03    70   0.470E-01    0.934E-02
RMM:   3    -0.116037672686E+03   -0.16468E-03   -0.13287E-03    70   0.198E-01    0.402E-02
RMM:   4    -0.116037726310E+03   -0.53624E-04   -0.31673E-04    71   0.944E-02    0.145E-02
RMM:   5    -0.116037740775E+03   -0.14465E-04   -0.10187E-04    62   0.449E-02    0.754E-03
RMM:   6    -0.116037746098E+03   -0.53227E-05   -0.10214E-05    47   0.188E-02
  22 F= -.11627918E+03 E0= -.11627918E+03  d E =-.512542E-02
 BRION: g(F)=  0.230E-01 g(S)=  0.000E+00 retain N=  2 mean eig= 5.50
 eig:   3.048  7.961
 bond charge predicted
       N       E                     dE             d eps       ncg     rms          rms(c)
DAV:   1    -0.116041731224E+03   -0.39904E-02   -0.57822E-01    70   0.390E+00    0.150E-01
RMM:   2    -0.116042286834E+03   -0.55561E-03   -0.87488E-03    70   0.459E-01    0.904E-02
RMM:   3    -0.116042445371E+03   -0.15854E-03   -0.12546E-03    70   0.193E-01    0.357E-02
RMM:   4    -0.116042494780E+03   -0.49409E-04   -0.28796E-04    71   0.905E-02    0.118E-02
RMM:   5    -0.116042510487E+03   -0.15707E-04   -0.95235E-05    60   0.432E-02    0.421E-03
RMM:   6    -0.116042515557E+03   -0.50696E-05   -0.92615E-06    47   0.174E-02
  23 F= -.11628392E+03 E0= -.11628392E+03  d E =-.474361E-02
 BRION: g(F)=  0.216E-01 g(S)=  0.000E+00
 BRIONS problems: POTIM should be increased
 retain N=  1 mean eig=14.40
 eig:  14.396
 bond charge predicted
       N       E                     dE             d eps       ncg     rms          rms(c)
DAV:   1    -0.116045046626E+03   -0.25361E-02   -0.23616E-01    70   0.249E+00    0.952E-02
RMM:   2    -0.116045271633E+03   -0.22501E-03   -0.36116E-03    70   0.294E-01    0.575E-02
RMM:   3    -0.116045342195E+03   -0.70563E-04   -0.51955E-04    70   0.124E-01    0.230E-02
RMM:   4    -0.116045365033E+03   -0.22838E-04   -0.11966E-04    61   0.583E-02    0.756E-03
RMM:   5    -0.116045373932E+03   -0.88984E-05   -0.36215E-05    54   0.275E-02
  24 F= -.11628677E+03 E0= -.11628677E+03  d E =-.284513E-02
 BRION: g(F)=  0.209E-01 g(S)=  0.000E+00 retain N=  1 mean eig= 2.46
 eig:   2.457
 bond charge predicted
       N       E                     dE             d eps       ncg     rms          rms(c)
DAV:   1    -0.116045004402E+03    0.36063E-03   -0.47968E-03    76   0.362E-01    0.156E-02
RMM:   2    -0.116045011621E+03   -0.72185E-05   -0.73375E-05    57   0.426E-02
  25 F= -.11628641E+03 E0= -.11628641E+03  d E =0.357532E-03
 BRION: g(F)=  0.204E-01 g(S)=  0.000E+00 retain N=  1 mean eig= 0.55
 eig:   0.546
 bond charge predicted
       N       E                     dE             d eps       ncg     rms          rms(c)
DAV:   1    -0.116045717875E+03   -0.71347E-03   -0.18824E-02    70   0.698E-01    0.257E-02
RMM:   2    -0.116045737954E+03   -0.20079E-04   -0.28543E-04    69   0.826E-02    0.149E-02
RMM:   3    -0.116045745189E+03   -0.72353E-05   -0.41050E-05    54   0.345E-02
  26 F= -.11628714E+03 E0= -.11628714E+03  d E =-.729618E-03
 BRION: g(F)=  0.194E-01 g(S)=  0.000E+00 retain N=  2 mean eig= 1.14
 eig:   0.124  2.156
 bond charge predicted
       N       E                     dE             d eps       ncg     rms          rms(c)
DAV:   1    -0.116048945901E+03   -0.32079E-02   -0.15048E+00    70   0.621E+00    0.239E-01
RMM:   2    -0.116050602192E+03   -0.16563E-02   -0.23841E-02    70   0.751E-01    0.144E-01
RMM:   3    -0.116050961126E+03   -0.35893E-03   -0.34010E-03    70   0.316E-01    0.610E-02
RMM:   4    -0.116051073028E+03   -0.11190E-03   -0.77762E-04    71   0.148E-01    0.207E-02
RMM:   5    -0.116051105474E+03   -0.32446E-04   -0.25645E-04    69   0.711E-02    0.665E-03
RMM:   6    -0.116051111101E+03   -0.56270E-05   -0.23358E-05    48   0.287E-02
  27 F= -.11629251E+03 E0= -.11629251E+03  d E =-.537030E-02
 BRION: g(F)=  0.177E-01 g(S)=  0.000E+00 retain N=  2 mean eig= 4.38
 eig:   3.112  5.654
 bond charge predicted
       N       E                     dE             d eps       ncg     rms          rms(c)
DAV:   1    -0.116050337510E+03    0.76796E-03   -0.50896E-02    70   0.115E+00    0.600E-02
RMM:   2    -0.116050375097E+03   -0.37587E-04   -0.10175E-03    70   0.152E-01    0.343E-02
RMM:   3    -0.116050384165E+03   -0.90687E-05   -0.14732E-04    61   0.644E-02    0.209E-02
RMM:   4    -0.116050395951E+03   -0.11786E-04   -0.49576E-05    55   0.349E-02    0.905E-03
RMM:   5    -0.116050401651E+03   -0.56996E-05   -0.86250E-06    46   0.151E-02
  28 F= -.11629177E+03 E0= -.11629177E+03  d E =0.736343E-03
 BRION: g(F)=  0.182E-01 g(S)=  0.000E+00 retain N=  1 mean eig= 0.56
 eig:   0.558
 bond charge predicted
       N       E                     dE             d eps       ncg     rms          rms(c)
DAV:   1    -0.116051297033E+03   -0.90108E-03   -0.49681E-02    76   0.113E+00    0.448E-02
RMM:   2    -0.116051345921E+03   -0.48888E-04   -0.80673E-04    70   0.137E-01    0.268E-02
RMM:   3    -0.116051361290E+03   -0.15369E-04   -0.11294E-04    57   0.571E-02    0.136E-02
RMM:   4    -0.116051366921E+03   -0.56303E-05   -0.25750E-05    54   0.263E-02
  29 F= -.11629274E+03 E0= -.11629274E+03  d E =-.973678E-03
 BRION: g(F)=  0.151E-01 g(S)=  0.000E+00 retain N=  2 mean eig= 1.34
 eig:   0.743  1.927
 bond charge predicted
       N       E                     dE             d eps       ncg     rms          rms(c)
DAV:   1    -0.116051954693E+03   -0.59340E-03   -0.24021E-02    73   0.782E-01    0.299E-02
RMM:   2    -0.116051978127E+03   -0.23434E-04   -0.39052E-04    70   0.955E-02    0.186E-02
RMM:   3    -0.116051987082E+03   -0.89551E-05   -0.56930E-05    55   0.404E-02
  30 F= -.11629337E+03 E0= -.11629337E+03  d E =-.620903E-03
 BRION: g(F)=  0.150E-01 g(S)=  0.000E+00 retain N=  2 mean eig= 0.95
 eig:   0.952  0.952
 bond charge predicted
       N       E                     dE             d eps       ncg     rms          rms(c)
DAV:   1    -0.116052645501E+03   -0.66737E-03   -0.31105E-02    70   0.893E-01    0.350E-02
RMM:   2    -0.116052675112E+03   -0.29612E-04   -0.51472E-04    70   0.111E-01    0.214E-02
RMM:   3    -0.116052686773E+03   -0.11661E-04   -0.78716E-05    57   0.475E-02    0.971E-03
RMM:   4    -0.116052690192E+03   -0.34183E-05   -0.19082E-05    51   0.221E-02
  31 F= -.11629406E+03 E0= -.11629406E+03  d E =-.697726E-03
 BRION: g(F)=  0.145E-01 g(S)=  0.000E+00 retain N=  3 mean eig= 4.14
 eig:   5.747  5.747  0.924
 bond charge predicted
       N       E                     dE             d eps       ncg     rms          rms(c)
DAV:   1    -0.116047196734E+03    0.54900E-02   -0.11724E+01    70   0.173E+01    0.687E-01
RMM:   2    -0.116061434078E+03   -0.14237E-01   -0.18995E-01    70   0.211E+00    0.396E-01
RMM:   3    -0.116063698482E+03   -0.22644E-02   -0.26720E-02    70   0.882E-01    0.196E-01
RMM:   4    -0.116064352384E+03   -0.65390E-03   -0.61310E-03    71   0.414E-01    0.650E-02
RMM:   5    -0.116064603174E+03   -0.25079E-03   -0.19673E-03    80   0.197E-01    0.331E-02
RMM:   6    -0.116064649868E+03   -0.46694E-04   -0.22295E-04    67   0.812E-02    0.104E-02
RMM:   7    -0.116064675913E+03   -0.26045E-04   -0.34095E-05    50   0.317E-02    0.718E-03
RMM:   8    -0.116064721460E+03   -0.45547E-04   -0.15391E-05    46   0.189E-02    0.298E-03
RMM:   9    -0.116064728175E+03   -0.67146E-05   -0.28290E-06    42   0.862E-03
  32 F= -.11630605E+03 E0= -.11630605E+03  d E =-.119886E-01
 BRION: g(F)=  0.117E-01 g(S)=  0.000E+00
 BRIONS problems: POTIM should be increased
 retain N=  1 mean eig=26.55
 eig:  26.547
 bond charge predicted
       N       E                     dE             d eps       ncg     rms          rms(c)
DAV:   1    -0.116061877189E+03    0.28443E-02   -0.48049E-01    70   0.351E+00    0.136E-01
RMM:   2    -0.116062387958E+03   -0.51077E-03   -0.75553E-03    70   0.423E-01    0.805E-02
RMM:   3    -0.116062531470E+03   -0.14351E-03   -0.10761E-03    70   0.178E-01    0.349E-02
RMM:   4    -0.116062577670E+03   -0.46200E-04   -0.24426E-04    68   0.837E-02    0.113E-02
RMM:   5    -0.116062590149E+03   -0.12479E-04   -0.78335E-05    58   0.396E-02    0.488E-03
RMM:   6    -0.116062592721E+03   -0.25719E-05   -0.86391E-06    47   0.167E-02
  33 F= -.11630394E+03 E0= -.11630394E+03  d E =0.211125E-02
 BRION: g(F)=  0.117E-01 g(S)=  0.000E+00 retain N=  1 mean eig= 2.85
 eig:   2.853
 bond charge predicted
       N       E                     dE             d eps       ncg     rms          rms(c)
DAV:   1    -0.116063789713E+03   -0.11996E-02   -0.20218E-01    76   0.226E+00    0.870E-02
RMM:   2    -0.116063991618E+03   -0.20190E-03   -0.31665E-03    70   0.272E-01    0.521E-02
RMM:   3    -0.116064058427E+03   -0.66809E-04   -0.44896E-04    70   0.114E-01    0.227E-02
RMM:   4    -0.116064076880E+03   -0.18453E-04   -0.10304E-04    60   0.540E-02    0.725E-03
RMM:   5    -0.116064079878E+03   -0.29983E-05   -0.29179E-05    52   0.251E-02
  34 F= -.11630541E+03 E0= -.11630541E+03  d E =-.147266E-02
 BRION: g(F)=  0.104E-01 g(S)=  0.000E+00 retain N=  1 mean eig= 2.10
 eig:   2.097
 bond charge predicted
       N       E                     dE             d eps       ncg     rms          rms(c)
DAV:   1    -0.116064356347E+03   -0.27947E-03   -0.76495E-03    76   0.435E-01    0.169E-02
RMM:   2    -0.116064363503E+03   -0.71568E-05   -0.12924E-04    58   0.549E-02    0.102E-02
RMM:   3    -0.116064366007E+03   -0.25034E-05   -0.20044E-05    51   0.233E-02
  35 F= -.11630570E+03 E0= -.11630570E+03  d E =-.288781E-03
 BRION: g(F)=  0.103E-01 g(S)=  0.000E+00 retain N=  2 mean eig= 1.54
 eig:   2.573  0.502
 bond charge predicted
       N       E                     dE             d eps       ncg     rms          rms(c)
DAV:   1    -0.116065906855E+03   -0.15434E-02   -0.50296E-01    70   0.353E+00    0.135E-01
RMM:   2    -0.116066428394E+03   -0.52154E-03   -0.79601E-03    70   0.429E-01    0.816E-02
RMM:   3    -0.116066568667E+03   -0.14027E-03   -0.11411E-03    70   0.181E-01    0.351E-02
RMM:   4    -0.116066612243E+03   -0.43576E-04   -0.27559E-04    68   0.851E-02    0.113E-02
RMM:   5    -0.116066621477E+03   -0.92335E-05   -0.73746E-05    58   0.390E-02
  36 F= -.11630795E+03 E0= -.11630795E+03  d E =-.224320E-02
 BRION: g(F)=  0.101E-01 g(S)=  0.000E+00 retain N=  2 mean eig= 3.09
 eig:   0.959  5.225
 bond charge predicted
       N       E                     dE             d eps       ncg     rms          rms(c)
DAV:   1    -0.116066495132E+03    0.11711E-03   -0.25439E-03    92   0.262E-01    0.108E-02
RMM:   2    -0.116066499347E+03   -0.42155E-05   -0.38283E-05    51   0.302E-02
  37 F= -.11630783E+03 E0= -.11630783E+03  d E =0.117967E-03
 BRION: g(F)=  0.102E-01 g(S)=  0.000E+00 retain N=  1 mean eig= 0.56
 eig:   0.558
 bond charge predicted
       N       E                     dE             d eps       ncg     rms          rms(c)
DAV:   1    -0.116066854178E+03   -0.35905E-03   -0.14172E-02    70   0.589E-01    0.209E-02
RMM:   2    -0.116066870386E+03   -0.16208E-04   -0.21671E-04    63   0.708E-02    0.123E-02
RMM:   3    -0.116066875370E+03   -0.49839E-05   -0.30678E-05    52   0.291E-02
  38 F= -.11630820E+03 E0= -.11630820E+03  d E =-.377176E-03
 BRION: g(F)=  0.972E-02 g(S)=  0.000E+00 retain N=  2 mean eig= 0.26
 eig:   0.507  0.014
 bond charge predicted
       N       E                     dE             d eps       ncg     rms          rms(c)
DAV:   1    -0.116067136903E+03   -0.26652E-03   -0.66940E-03    73   0.407E-01    0.166E-02
RMM:   2    -0.116067143487E+03   -0.65840E-05   -0.11473E-04    58   0.516E-02    0.103E-02
RMM:   3    -0.116067146413E+03   -0.29251E-05   -0.18892E-05    50   0.220E-02
  39 F= -.11630847E+03 E0= -.11630847E+03  d E =-.267313E-03
 BRION: g(F)=  0.964E-02 g(S)=  0.000E+00 retain N=  2 mean eig= 0.62
 eig:   0.619  0.619
 bond charge predicted
       N       E                     dE             d eps       ncg     rms          rms(c)
DAV:   1    -0.116067668510E+03   -0.52502E-03   -0.31248E-02    70   0.876E-01    0.335E-02
RMM:   2    -0.116067699900E+03   -0.31390E-04   -0.50275E-04    70   0.108E-01    0.206E-02
RMM:   3    -0.116067710697E+03   -0.10797E-04   -0.74139E-05    57   0.457E-02    0.879E-03
RMM:   4    -0.116067713874E+03   -0.31768E-05   -0.17709E-05    50   0.210E-02
  40 F= -.11630904E+03 E0= -.11630904E+03  d E =-.569386E-03
 BRION: g(F)=  0.957E-02 g(S)=  0.000E+00 retain N=  2 mean eig= 1.26
 eig:   1.263  1.263
 bond charge predicted
       N       E                     dE             d eps       ncg     rms          rms(c)
DAV:   1    -0.116068355214E+03   -0.64452E-03   -0.49060E-02    70   0.109E+00    0.416E-02
RMM:   2    -0.116068403600E+03   -0.48386E-04   -0.78448E-04    70   0.134E-01    0.255E-02
RMM:   3    -0.116068419727E+03   -0.16126E-04   -0.11261E-04    57   0.563E-02    0.108E-02
RMM:   4    -0.116068424047E+03   -0.43201E-05   -0.26174E-05    53   0.253E-02
  41 F= -.11630975E+03 E0= -.11630975E+03  d E =-.708909E-03
 BRION: g(F)=  0.955E-02 g(S)=  0.000E+00 retain N=  3 mean eig= 2.82
 eig:   3.841  3.841  0.769
 bond charge predicted
       N       E                     dE             d eps       ncg     rms          rms(c)
DAV:   1    -0.116068964315E+03   -0.54459E-03   -0.33750E+00    70   0.908E+00    0.352E-01
RMM:   2    -0.116072771499E+03   -0.38072E-02   -0.53708E-02    70   0.111E+00    0.210E-01
RMM:   3    -0.116073514685E+03   -0.74319E-03   -0.75720E-03    70   0.464E-01    0.948E-02
RMM:   4    -0.116073763200E+03   -0.24851E-03   -0.18356E-03    72   0.217E-01    0.309E-02
RMM:   5    -0.116073824326E+03   -0.61126E-04   -0.48224E-04    73   0.991E-02    0.149E-02
RMM:   6    -0.116073837317E+03   -0.12991E-04   -0.56341E-05    53   0.425E-02    0.426E-03
RMM:   7    -0.116073849348E+03   -0.12031E-04   -0.17597E-05    47   0.216E-02    0.388E-03
RMM:   8    -0.116073868852E+03   -0.19504E-04   -0.50851E-06    45   0.108E-02    0.201E-03
RMM:   9    -0.116073873540E+03   -0.46879E-05   -0.12103E-06    35   0.602E-03
  42 F= -.11631519E+03 E0= -.11631519E+03  d E =-.544080E-02
 BRION: g(F)=  0.861E-02 g(S)=  0.000E+00
 BRIONS problems: POTIM should be increased
 retain N=  1 mean eig=14.05
 eig:  14.053
 bond charge predicted
       N       E                     dE             d eps       ncg     rms          rms(c)
DAV:   1    -0.116074412143E+03   -0.54329E-03   -0.40861E-02    73   0.997E-01    0.381E-02
RMM:   2    -0.116074457757E+03   -0.45614E-04   -0.64830E-04    70   0.121E-01    0.230E-02
RMM:   3    -0.116074471583E+03   -0.13826E-04   -0.92314E-05    57   0.510E-02    0.984E-03
RMM:   4    -0.116074476395E+03   -0.48120E-05   -0.21368E-05    52   0.232E-02
  43 F= -.11631580E+03 E0= -.11631580E+03  d E =-.606814E-03
 BRION: g(F)=  0.852E-02 g(S)=  0.000E+00 retain N=  1 mean eig= 0.99
 eig:   0.989
 bond charge predicted
       N       E                     dE             d eps       ncg     rms          rms(c)
DAV:   1    -0.116074497954E+03   -0.26371E-04   -0.97520E-05    84   0.552E-02    0.425E-03
RMM:   2    -0.116074498494E+03   -0.54020E-06   -0.26658E-06    42   0.873E-03
  44 F= -.11631582E+03 E0= -.11631582E+03  d E =-.215172E-04
 BRION: g(F)=  0.840E-02 g(S)=  0.000E+00 retain N=  1 mean eig= 0.48
 eig:   0.477
 bond charge predicted
       N       E                     dE             d eps       ncg     rms          rms(c)
DAV:   1    -0.116074719486E+03   -0.22153E-03   -0.62072E-03    73   0.388E-01    0.150E-02
RMM:   2    -0.116074726506E+03   -0.70203E-05   -0.10029E-04    58   0.478E-02    0.913E-03
RMM:   3    -0.116074728758E+03   -0.22515E-05   -0.14697E-05    47   0.200E-02
  45 F= -.11631605E+03 E0= -.11631605E+03  d E =-.232207E-03
 BRION: g(F)=  0.824E-02 g(S)=  0.000E+00 retain N=  1 mean eig= 3.12
 eig:   3.117
 bond charge predicted
       N       E                     dE             d eps       ncg     rms          rms(c)
DAV:   1    -0.116075428250E+03   -0.70174E-03   -0.79282E-02    70   0.139E+00    0.533E-02
RMM:   2    -0.116075512390E+03   -0.84140E-04   -0.12759E-03    70   0.171E-01    0.324E-02
RMM:   3    -0.116075535564E+03   -0.23175E-04   -0.18402E-04    61   0.723E-02    0.139E-02
RMM:   4    -0.116075541334E+03   -0.57695E-05   -0.43768E-05    55   0.332E-02
  46 F= -.11631687E+03 E0= -.11631687E+03  d E =-.817689E-03
 BRION: g(F)=  0.824E-02 g(S)=  0.000E+00 retain N=  2 mean eig= 7.55
 eig:   7.548  7.548
 bond charge predicted
       N       E                     dE             d eps       ncg     rms          rms(c)
DAV:   1    -0.116070425452E+03    0.51101E-02   -0.84798E+00    70   0.144E+01    0.560E-01
RMM:   2    -0.116080548276E+03   -0.10123E-01   -0.13764E-01    70   0.177E+00    0.331E-01
RMM:   3    -0.116082219622E+03   -0.16713E-02   -0.19197E-02    70   0.739E-01    0.158E-01
RMM:   4    -0.116082759166E+03   -0.53954E-03   -0.43939E-03    70   0.347E-01    0.494E-02
RMM:   5    -0.116082938999E+03   -0.17983E-03   -0.14759E-03    81   0.165E-01    0.261E-02
RMM:   6    -0.116082967951E+03   -0.28952E-04   -0.12953E-04    63   0.665E-02    0.662E-03
RMM:   7    -0.116082990562E+03   -0.22611E-04   -0.44767E-05    51   0.331E-02    0.651E-03
RMM:   8    -0.116083025518E+03   -0.34956E-04   -0.10738E-05    46   0.159E-02    0.250E-03
RMM:   9    -0.116083036872E+03   -0.11355E-04   -0.25051E-06    42   0.740E-03    0.141E-03
RMM:  10    -0.116083075781E+03   -0.38909E-04   -0.54831E-06    40   0.737E-03    0.257E-03
RMM:  11    -0.116083080414E+03   -0.46322E-05   -0.11444E-06    30   0.428E-03
  47 F= -.11632445E+03 E0= -.11632445E+03  d E =-.758080E-02
 BRION: g(F)=  0.702E-02 g(S)=  0.000E+00
 BRIONS problems: POTIM should be increased
 retain N=  1 mean eig=24.90
 eig:  24.901
 bond charge predicted
       N       E                     dE             d eps       ncg     rms          rms(c)
DAV:   1    -0.116081495868E+03    0.15799E-02   -0.25707E-01    73   0.251E+00    0.973E-02
RMM:   2    -0.116081760233E+03   -0.26437E-03   -0.41001E-03    70   0.307E-01    0.583E-02
RMM:   3    -0.116081840152E+03   -0.79919E-04   -0.58003E-04    70   0.129E-01    0.255E-02
RMM:   4    -0.116081860903E+03   -0.20751E-04   -0.13375E-04    60   0.608E-02    0.788E-03
RMM:   5    -0.116081865730E+03   -0.48272E-05   -0.40771E-05    54   0.284E-02
  48 F= -.11632324E+03 E0= -.11632324E+03  d E =0.121059E-02
 BRION: g(F)=  0.710E-02 g(S)=  0.000E+00 retain N=  1 mean eig= 1.44
 eig:   1.444
 bond charge predicted
       N       E                     dE             d eps       ncg     rms          rms(c)
DAV:   1    -0.116082520031E+03   -0.65913E-03   -0.11073E-01    76   0.164E+00    0.630E-02
RMM:   2    -0.116082636961E+03   -0.11693E-03   -0.17338E-03    70   0.199E-01    0.382E-02
RMM:   3    -0.116082669931E+03   -0.32970E-04   -0.23847E-04    64   0.825E-02    0.167E-02
RMM:   4    -0.116082679220E+03   -0.92898E-05   -0.52830E-05    55   0.378E-02
  49 F= -.11632405E+03 E0= -.11632405E+03  d E =-.812328E-03
 BRION: g(F)=  0.632E-02 g(S)=  0.000E+00 retain N=  1 mean eig= 1.90
 eig:   1.901
 bond charge predicted
       N       E                     dE             d eps       ncg     rms          rms(c)
DAV:   1    -0.116082918543E+03   -0.24861E-03   -0.13623E-02    76   0.579E-01    0.224E-02
RMM:   2    -0.116082933688E+03   -0.15145E-04   -0.22978E-04    64   0.725E-02    0.142E-02
RMM:   3    -0.116082937198E+03   -0.35098E-05   -0.33819E-05    53   0.305E-02
  50 F= -.11632431E+03 E0= -.11632431E+03  d E =-.262446E-03
 BRION: g(F)=  0.631E-02 g(S)=  0.000E+00 retain N=  2 mean eig= 1.60
 eig:   1.596  1.596
 bond charge predicted
       N       E                     dE             d eps       ncg     rms          rms(c)
DAV:   1    -0.116083508932E+03   -0.57524E-03   -0.99076E-02    70   0.156E+00    0.592E-02
RMM:   2    -0.116083613935E+03   -0.10500E-03   -0.15997E-03    70   0.192E-01    0.363E-02
RMM:   3    -0.116083642362E+03   -0.28428E-04   -0.23243E-04    63   0.812E-02    0.155E-02
RMM:   4    -0.116083648976E+03   -0.66139E-05   -0.56090E-05    56   0.374E-02
  51 F= -.11632503E+03 E0= -.11632503E+03  d E =-.716008E-03
 BRION: g(F)=  0.621E-02 g(S)=  0.000E+00 retain N=  2 mean eig= 2.65
 eig:   1.794  3.503
 bond charge predicted
       N       E                     dE             d eps       ncg     rms          rms(c)
DAV:   1    -0.116083879124E+03   -0.23676E-03   -0.12771E-02    76   0.564E-01    0.221E-02
RMM:   2    -0.116083892191E+03   -0.13067E-04   -0.21647E-04    64   0.707E-02    0.138E-02
RMM:   3    -0.116083895241E+03   -0.30496E-05   -0.32311E-05    53   0.299E-02
  52 F= -.11632528E+03 E0= -.11632528E+03  d E =-.244653E-03
 BRION: g(F)=  0.625E-02 g(S)=  0.000E+00 retain N=  2 mean eig= 1.65
 eig:   2.797  0.513
 bond charge predicted
       N       E                     dE             d eps       ncg     rms          rms(c)
DAV:   1    -0.116084239317E+03   -0.34713E-03   -0.31769E-02    70   0.883E-01    0.344E-02
RMM:   2    -0.116084273852E+03   -0.34534E-04   -0.52725E-04    70   0.110E-01    0.211E-02
RMM:   3    -0.116084282194E+03   -0.83420E-05   -0.78246E-05    57   0.468E-02
  53 F= -.11632567E+03 E0= -.11632567E+03  d E =-.395951E-03
 BRION: g(F)=  0.605E-02 g(S)=  0.000E+00 retain N=  3 mean eig= 5.00
 eig:   6.971  6.971  1.050
 bond charge predicted
       N       E                     dE             d eps       ncg     rms          rms(c)
DAV:   1    -0.116068946942E+03    0.15327E-01   -0.14872E+01    70   0.191E+01    0.775E-01
RMM:   2    -0.116087424895E+03   -0.18478E-01   -0.24626E-01    70   0.238E+00    0.440E-01
RMM:   3    -0.116090226200E+03   -0.28013E-02   -0.34533E-02    70   0.990E-01    0.229E-01
RMM:   4    -0.116091088260E+03   -0.86206E-03   -0.83531E-03    71   0.466E-01    0.784E-02
RMM:   5    -0.116091388029E+03   -0.29977E-03   -0.22053E-03    79   0.216E-01    0.391E-02
RMM:   6    -0.116091455311E+03   -0.67282E-04   -0.31403E-04    71   0.927E-02    0.109E-02
RMM:   7    -0.116091488587E+03   -0.33276E-04   -0.44664E-05    51   0.361E-02    0.787E-03
RMM:   8    -0.116091544417E+03   -0.55831E-04   -0.18858E-05    47   0.208E-02    0.321E-03
RMM:   9    -0.116091552737E+03   -0.83198E-05   -0.34570E-06    45   0.959E-03
  54 F= -.11633300E+03 E0= -.11633300E+03  d E =-.732533E-02
 BRION: g(F)=  0.706E-02 g(S)=  0.000E+00
 BRIONS problems: POTIM should be increased
 retain N=  1 mean eig=16.83
 eig:  16.829
 bond charge predicted
       N       E                     dE             d eps       ncg     rms          rms(c)
DAV:   1    -0.116077935299E+03    0.13609E-01   -0.61392E+00    70   0.122E+01    0.495E-01
RMM:   2    -0.116085320383E+03   -0.73851E-02   -0.99774E-02    70   0.152E+00    0.282E-01
RMM:   3    -0.116086572059E+03   -0.12517E-02   -0.14103E-02    70   0.634E-01    0.137E-01
RMM:   4    -0.116087007529E+03   -0.43547E-03   -0.33618E-03    71   0.296E-01    0.459E-02
RMM:   5    -0.116087127190E+03   -0.11966E-03   -0.89893E-04    77   0.138E-01    0.209E-02
RMM:   6    -0.116087146099E+03   -0.18908E-04   -0.10716E-04    60   0.585E-02    0.618E-03
RMM:   7    -0.116087160738E+03   -0.14639E-04   -0.34503E-05    49   0.293E-02    0.715E-03
RMM:   8    -0.116087172714E+03   -0.11976E-04   -0.61380E-06    46   0.122E-02    0.271E-03
RMM:   9    -0.116087187805E+03   -0.15092E-04   -0.24182E-06    43   0.695E-03    0.123E-03
RMM:  10    -0.116087198885E+03   -0.11079E-04   -0.12265E-06    33   0.463E-03    0.134E-03
RMM:  11    -0.116087210301E+03   -0.11417E-04   -0.16356E-06    32   0.446E-03    0.113E-03
RMM:  12    -0.116087213581E+03   -0.32802E-05   -0.60664E-07    29   0.346E-03
  55 F= -.11632863E+03 E0= -.11632863E+03  d E =0.437082E-02
 BRION: g(F)=  0.547E-02 g(S)=  0.000E+00
 BRIONS problems: POTIM should be increased
 retain N=  1 mean eig= 8.79
 eig:   8.786
 bond charge predicted
       N       E                     dE             d eps       ncg     rms          rms(c)
DAV:   1    -0.116087856969E+03   -0.64667E-03   -0.26102E-01    70   0.253E+00    0.955E-02
RMM:   2    -0.116088128833E+03   -0.27186E-03   -0.41214E-03    70   0.308E-01    0.580E-02
RMM:   3    -0.116088206926E+03   -0.78093E-04   -0.57996E-04    70   0.129E-01    0.245E-02
RMM:   4    -0.116088226033E+03   -0.19107E-04   -0.13850E-04    61   0.602E-02    0.762E-03
RMM:   5    -0.116088229820E+03   -0.37866E-05   -0.33472E-05    52   0.273E-02
  56 F= -.11632965E+03 E0= -.11632965E+03  d E =-.102545E-02
 BRION: g(F)=  0.520E-02 g(S)=  0.000E+00
 BRIONS problems: POTIM should be increased
 retain N=  1 mean eig= 8.60
 eig:   8.603
 bond charge predicted
       N       E                     dE             d eps       ncg     rms          rms(c)
DAV:   1    -0.116088604778E+03   -0.37875E-03   -0.47417E-02    70   0.108E+00    0.410E-02
RMM:   2    -0.116088654586E+03   -0.49807E-04   -0.76825E-04    70   0.134E-01    0.247E-02
RMM:   3    -0.116088668110E+03   -0.13524E-04   -0.11322E-04    59   0.569E-02    0.105E-02
RMM:   4    -0.116088672019E+03   -0.39088E-05   -0.27183E-05    53   0.263E-02
  57 F= -.11633010E+03 E0= -.11633010E+03  d E =-.446026E-03
 BRION: g(F)=  0.521E-02 g(S)=  0.000E+00 retain N=  1 mean eig= 1.38
 eig:   1.384
 bond charge predicted
       N       E                     dE             d eps       ncg     rms          rms(c)
DAV:   1    -0.116088566463E+03    0.10165E-03   -0.34113E-03    76   0.288E-01    0.110E-02
RMM:   2    -0.116088570817E+03   -0.43535E-05   -0.50145E-05    51   0.341E-02
  58 F= -.11633000E+03 E0= -.11633000E+03  d E =0.101067E-03
 BRION: g(F)=  0.522E-02 g(S)=  0.000E+00 retain N=  1 mean eig= 0.73
 eig:   0.731
 bond charge predicted
       N       E                     dE             d eps       ncg     rms          rms(c)
DAV:   1    -0.116088740053E+03   -0.17359E-03   -0.72885E-03    73   0.421E-01    0.146E-02
RMM:   2    -0.116088748679E+03   -0.86266E-05   -0.10701E-04    58   0.504E-02    0.832E-03
RMM:   3    -0.116088750952E+03   -0.22730E-05   -0.15354E-05    47   0.204E-02
  59 F= -.11633018E+03 E0= -.11633018E+03  d E =-.182871E-03
 BRION: g(F)=  0.505E-02 g(S)=  0.000E+00
 BRIONS problems: POTIM should be increased
 retain N=  1 mean eig=11.15
 eig:  11.150
 bond charge predicted
       N       E                     dE             d eps       ncg     rms          rms(c)
DAV:   1    -0.116089476742E+03   -0.72806E-03   -0.31477E-01    70   0.280E+00    0.107E-01
RMM:   2    -0.116089794001E+03   -0.31726E-03   -0.49627E-03    70   0.342E-01    0.649E-02
RMM:   3    -0.116089887343E+03   -0.93342E-04   -0.71149E-04    70   0.144E-01    0.270E-02
RMM:   4    -0.116089911100E+03   -0.23757E-04   -0.17241E-04    63   0.675E-02    0.852E-03
RMM:   5    -0.116089916664E+03   -0.55637E-05   -0.44305E-05    54   0.308E-02
  60 F= -.11633136E+03 E0= -.11633136E+03  d E =-.117642E-02
 BRION: g(F)=  0.499E-02 g(S)=  0.000E+00 retain N=  1 mean eig= 4.79
 eig:   4.791
 bond charge predicted
       N       E                     dE             d eps       ncg     rms          rms(c)
DAV:   1    -0.116089471828E+03    0.43927E-03   -0.37848E-02    70   0.971E-01    0.378E-02
RMM:   2    -0.116089510865E+03   -0.39037E-04   -0.58338E-04    70   0.116E-01    0.229E-02
RMM:   3    -0.116089524452E+03   -0.13587E-04   -0.79660E-05    57   0.480E-02    0.992E-03
RMM:   4    -0.116089529766E+03   -0.53134E-05   -0.18305E-05    50   0.216E-02
  61 F= -.11633097E+03 E0= -.11633097E+03  d E =0.385649E-03
 BRION: g(F)=  0.504E-02 g(S)=  0.000E+00 retain N=  1 mean eig= 0.95
 eig:   0.952
 bond charge predicted
       N       E                     dE             d eps       ncg     rms          rms(c)
DAV:   1    -0.116089822596E+03   -0.29814E-03   -0.23431E-02    76   0.765E-01    0.291E-02
RMM:   2    -0.116089846055E+03   -0.23459E-04   -0.35905E-04    68   0.921E-02    0.172E-02
RMM:   3    -0.116089853133E+03   -0.70788E-05   -0.50101E-05    55   0.382E-02
  62 F= -.11633130E+03 E0= -.11633130E+03  d E =-.326293E-03
 BRION: g(F)=  0.475E-02 g(S)=  0.000E+00 retain N=  1 mean eig= 5.27
 eig:   5.265
 bond charge predicted
       N       E                     dE             d eps       ncg     rms          rms(c)
DAV:   1    -0.116090420042E+03   -0.57399E-03   -0.13806E-01    70   0.186E+00    0.708E-02
RMM:   2    -0.116090562020E+03   -0.14198E-03   -0.22054E-03    70   0.229E-01    0.435E-02
RMM:   3    -0.116090603449E+03   -0.41428E-04   -0.32146E-04    70   0.968E-02    0.180E-02
RMM:   4    -0.116090613978E+03   -0.10529E-04   -0.78788E-05    57   0.455E-02    0.586E-03
RMM:   5    -0.116090616417E+03   -0.24394E-05   -0.18869E-05    50   0.204E-02
  63 F= -.11633207E+03 E0= -.11633207E+03  d E =-.775708E-03
 BRION: g(F)=  0.468E-02 g(S)=  0.000E+00 retain N=  1 mean eig= 7.40
 eig:   7.397
 bond charge predicted
       N       E                     dE             d eps       ncg     rms          rms(c)
DAV:   1    -0.116090545058E+03    0.68920E-04   -0.22150E-03    70   0.241E-01    0.131E-02
RMM:   2    -0.116090546792E+03   -0.17342E-05   -0.41582E-05    52   0.311E-02
  64 F= -.11633199E+03 E0= -.11633199E+03  d E =0.765513E-04
 BRION: g(F)=  0.478E-02 g(S)=  0.000E+00 retain N=  1 mean eig= 0.47
 eig:   0.473
 bond charge predicted
       N       E                     dE             d eps       ncg     rms          rms(c)
DAV:   1    -0.116090689898E+03   -0.14484E-03   -0.53879E-03    73   0.366E-01    0.129E-02
RMM:   2    -0.116090696928E+03   -0.70300E-05   -0.82940E-05    58   0.445E-02
  65 F= -.11633215E+03 E0= -.11633215E+03  d E =-.155477E-03
 BRION: g(F)=  0.443E-02 g(S)=  0.000E+00 retain N=  1 mean eig= 0.92
 eig:   0.920
 bond charge predicted
       N       E                     dE             d eps       ncg     rms          rms(c)
DAV:   1    -0.116090852093E+03   -0.16219E-03   -0.56433E-03    70   0.384E-01    0.174E-02
RMM:   2    -0.116090856639E+03   -0.45461E-05   -0.98553E-05    58   0.484E-02
  66 F= -.11633231E+03 E0= -.11633231E+03  d E =-.160724E-03
 BRION: g(F)=  0.445E-02 g(S)=  0.000E+00 retain N=  2 mean eig= 1.84
 eig:   1.843  1.843
 bond charge predicted
       N       E                     dE             d eps       ncg     rms          rms(c)
DAV:   1    -0.116091590247E+03   -0.73815E-03   -0.39815E-01    70   0.318E+00    0.123E-01
RMM:   2    -0.116091984347E+03   -0.39410E-03   -0.62790E-03    70   0.387E-01    0.753E-02
RMM:   3    -0.116092100372E+03   -0.11602E-03   -0.90016E-04    70   0.163E-01    0.301E-02
RMM:   4    -0.116092131122E+03   -0.30750E-04   -0.21560E-04    68   0.759E-02    0.998E-03
RMM:   5    -0.116092138544E+03   -0.74221E-05   -0.57191E-05    58   0.350E-02
  67 F= -.11633362E+03 E0= -.11633362E+03  d E =-.130867E-02
 BRION: g(F)=  0.437E-02 g(S)=  0.000E+00 retain N=  1 mean eig= 6.52
 eig:   6.522
 bond charge predicted
       N       E                     dE             d eps       ncg     rms          rms(c)
DAV:   1    -0.116091639734E+03    0.49139E-03   -0.48509E-02    70   0.111E+00    0.432E-02
RMM:   2    -0.116091690051E+03   -0.50318E-04   -0.74466E-04    70   0.133E-01    0.260E-02
RMM:   3    -0.116091706469E+03   -0.16418E-04   -0.10221E-04    59   0.546E-02    0.115E-02
RMM:   4    -0.116091713358E+03   -0.68888E-05   -0.23220E-05    52   0.244E-02
  68 F= -.11633318E+03 E0= -.11633318E+03  d E =0.437828E-03
 BRION: g(F)=  0.445E-02 g(S)=  0.000E+00 retain N=  1 mean eig= 0.88
 eig:   0.883
 bond charge predicted
       N       E                     dE             d eps       ncg     rms          rms(c)
DAV:   1    -0.116092011411E+03   -0.30494E-03   -0.26782E-02    76   0.824E-01    0.315E-02
RMM:   2    -0.116092038114E+03   -0.26703E-04   -0.40852E-04    70   0.991E-02    0.186E-02
RMM:   3    -0.116092046381E+03   -0.82668E-05   -0.57110E-05    56   0.412E-02
  69 F= -.11633352E+03 E0= -.11633352E+03  d E =-.338976E-03
 BRION: g(F)=  0.405E-02 g(S)=  0.000E+00 retain N=  2 mean eig= 4.15
 eig:   1.036  7.264
 bond charge predicted
       N       E                     dE             d eps       ncg     rms          rms(c)
DAV:   1    -0.116092384005E+03   -0.34589E-03   -0.40136E-02    70   0.101E+00    0.392E-02
RMM:   2    -0.116092425142E+03   -0.41137E-04   -0.65616E-04    70   0.126E-01    0.243E-02
RMM:   3    -0.116092437419E+03   -0.12278E-04   -0.98860E-05    59   0.538E-02    0.105E-02
RMM:   4    -0.116092440850E+03   -0.34302E-05   -0.23973E-05    52   0.248E-02
  70 F= -.11633393E+03 E0= -.11633393E+03  d E =-.405742E-03
 BRION: g(F)=  0.410E-02 g(S)=  0.000E+00 retain N=  2 mean eig= 2.62
 eig:   2.622  2.622
 bond charge predicted
       N       E                     dE             d eps       ncg     rms          rms(c)
DAV:   1    -0.116092772841E+03   -0.33542E-03   -0.36240E-02    70   0.967E-01    0.374E-02
RMM:   2    -0.116092807407E+03   -0.34566E-04   -0.58561E-04    70   0.119E-01    0.230E-02
RMM:   3    -0.116092817287E+03   -0.98805E-05   -0.85993E-05    58   0.501E-02
  71 F= -.11633430E+03 E0= -.11633430E+03  d E =-.376691E-03
 BRION: g(F)=  0.394E-02 g(S)=  0.000E+00 retain N=  2 mean eig= 4.12
 eig:   4.121  4.121
 bond charge predicted
       N       E                     dE             d eps       ncg     rms          rms(c)
DAV:   1    -0.116093289803E+03   -0.48240E-03   -0.10185E-01    70   0.162E+00    0.618E-02
RMM:   2    -0.116093393589E+03   -0.10379E-03   -0.16408E-03    70   0.199E-01    0.381E-02
RMM:   3    -0.116093424180E+03   -0.30591E-04   -0.24416E-04    69   0.847E-02    0.159E-02
RMM:   4    -0.116093432964E+03   -0.87846E-05   -0.60900E-05    57   0.398E-02
  72 F= -.11633493E+03 E0= -.11633493E+03  d E =-.631102E-03
 BRION: g(F)=  0.402E-02 g(S)=  0.000E+00 retain N=  2 mean eig= 1.63
 eig:   1.634  1.634
 bond charge predicted
       N       E                     dE             d eps       ncg     rms          rms(c)
DAV:   1    -0.116093184938E+03    0.23924E-03   -0.14418E-02    70   0.605E-01    0.232E-02
RMM:   2    -0.116093200260E+03   -0.15323E-04   -0.21351E-04    65   0.720E-02    0.135E-02
RMM:   3    -0.116093206202E+03   -0.59414E-05   -0.28914E-05    52   0.293E-02
  73 F= -.11633470E+03 E0= -.11633470E+03  d E =0.231236E-03
 BRION: g(F)=  0.383E-02 g(S)=  0.000E+00 retain N=  2 mean eig= 1.42
 eig:   1.182  1.662
 bond charge predicted
       N       E                     dE             d eps       ncg     rms          rms(c)
DAV:   1    -0.116093259788E+03   -0.59528E-04   -0.71757E-04    70   0.135E-01    0.556E-03
RMM:   2    -0.116093261012E+03   -0.12244E-05   -0.98148E-06    46   0.152E-02
  74 F= -.11633476E+03 E0= -.11633476E+03  d E =-.545520E-04
 BRION: g(F)=  0.371E-02 g(S)=  0.000E+00 retain N=  3 mean eig= 3.69
 eig:   0.616  5.224  5.224
 bond charge predicted
       N       E                     dE             d eps       ncg     rms          rms(c)
DAV:   1    -0.116091970544E+03    0.12892E-02   -0.32332E+00    70   0.912E+00    0.347E-01
RMM:   2    -0.116095467758E+03   -0.34972E-02   -0.50617E-02    70   0.111E+00    0.210E-01
RMM:   3    -0.116096153741E+03   -0.68598E-03   -0.71874E-03    70   0.463E-01    0.876E-02
RMM:   4    -0.116096397040E+03   -0.24330E-03   -0.17163E-03    71   0.216E-01    0.279E-02
RMM:   5    -0.116096454268E+03   -0.57227E-04   -0.46638E-04    77   0.100E-01    0.126E-02
RMM:   6    -0.116096464129E+03   -0.98614E-05   -0.51690E-05    51   0.420E-02
  75 F= -.11633802E+03 E0= -.11633802E+03  d E =-.326420E-02
 BRION: g(F)=  0.340E-02 g(S)=  0.000E+00
 BRIONS problems: POTIM should be increased
 retain N=  1 mean eig=24.62
 eig:  24.623
 bond charge predicted
       N       E                     dE             d eps       ncg     rms          rms(c)
DAV:   1    -0.116095126317E+03    0.13280E-02   -0.29281E-01    70   0.274E+00    0.105E-01
RMM:   2    -0.116095425104E+03   -0.29879E-03   -0.45276E-03    70   0.331E-01    0.630E-02
RMM:   3    -0.116095532141E+03   -0.10704E-03   -0.64150E-04    70   0.138E-01    0.262E-02
RMM:   4    -0.116095566182E+03   -0.34042E-04   -0.15282E-04    63   0.646E-02    0.868E-03
RMM:   5    -0.116095575772E+03   -0.95895E-05   -0.36935E-05    52   0.296E-02
  76 F= -.11633712E+03 E0= -.11633712E+03  d E =0.906700E-03
 BRION: g(F)=  0.358E-02 g(S)=  0.000E+00 retain N=  1 mean eig= 1.77
 eig:   1.771
 bond charge predicted
       N       E                     dE             d eps       ncg     rms          rms(c)
DAV:   1    -0.116096008452E+03   -0.44227E-03   -0.11207E-01    70   0.170E+00    0.644E-02
RMM:   2    -0.116096114875E+03   -0.10642E-03   -0.17106E-03    70   0.203E-01    0.391E-02
RMM:   3    -0.116096150939E+03   -0.36065E-04   -0.23765E-04    70   0.844E-02    0.157E-02
RMM:   4    -0.116096160151E+03   -0.92115E-05   -0.55309E-05    57   0.387E-02
  77 F= -.11633771E+03 E0= -.11633771E+03  d E =-.595605E-03
 BRION: g(F)=  0.292E-02 g(S)=  0.000E+00 retain N=  1 mean eig= 4.94
 eig:   4.940
 bond charge predicted
       N       E                     dE             d eps       ncg     rms          rms(c)
DAV:   1    -0.116096527590E+03   -0.37665E-03   -0.79092E-02    70   0.143E+00    0.544E-02
RMM:   2    -0.116096603376E+03   -0.75785E-04   -0.12546E-03    70   0.175E-01    0.333E-02
RMM:   3    -0.116096628788E+03   -0.25413E-04   -0.18248E-04    64   0.739E-02    0.135E-02
RMM:   4    -0.116096635382E+03   -0.65935E-05   -0.43508E-05    55   0.336E-02
  78 F= -.11633820E+03 E0= -.11633820E+03  d E =-.484889E-03
 BRION: g(F)=  0.290E-02 g(S)=  0.000E+00
 BRIONS problems: POTIM should be increased
 retain N=  1 mean eig=10.93
 eig:  10.930
 bond charge predicted
       N       E                     dE             d eps       ncg     rms          rms(c)
DAV:   1    -0.116096594819E+03    0.33969E-04   -0.66982E-04    92   0.129E-01    0.532E-03
RMM:   2    -0.116096596109E+03   -0.12896E-05   -0.92363E-06    46   0.149E-02
  79 F= -.11633815E+03 E0= -.11633815E+03  d E =0.409277E-04
 BRION: g(F)=  0.296E-02 g(S)=  0.000E+00 retain N=  1 mean eig= 0.45
 eig:   0.453
 bond charge predicted
       N       E                     dE             d eps       ncg     rms          rms(c)
DAV:   1    -0.116096680890E+03   -0.86070E-04   -0.28004E-03    73   0.268E-01    0.947E-03
RMM:   2    -0.116096684389E+03   -0.34994E-05   -0.42429E-05    52   0.324E-02
  80 F= -.11633825E+03 E0= -.11633825E+03  d E =-.903798E-04
 BRION: g(F)=  0.276E-02 g(S)=  0.000E+00 retain N=  1 mean eig= 0.95
 eig:   0.953
 bond charge predicted
       N       E                     dE             d eps       ncg     rms          rms(c)
DAV:   1    -0.116096783249E+03   -0.10236E-03   -0.36984E-03    70   0.316E-01    0.138E-02
RMM:   2    -0.116096786383E+03   -0.31340E-05   -0.62601E-05    54   0.393E-02
  81 F= -.11633835E+03 E0= -.11633835E+03  d E =-.103839E-03
 BRION: g(F)=  0.278E-02 g(S)=  0.000E+00 retain N=  2 mean eig= 2.03
 eig:   0.533  3.532
 bond charge predicted
       N       E                     dE             d eps       ncg     rms          rms(c)
DAV:   1    -0.116097249338E+03   -0.46609E-03   -0.19813E-01    70   0.229E+00    0.883E-02
RMM:   2    -0.116097430984E+03   -0.18165E-03   -0.30920E-03    70   0.277E-01    0.541E-02
RMM:   3    -0.116097493628E+03   -0.62644E-04   -0.45090E-04    70   0.117E-01    0.210E-02
RMM:   4    -0.116097511280E+03   -0.17652E-04   -0.10764E-04    61   0.546E-02    0.714E-03
RMM:   5    -0.116097514989E+03   -0.37087E-05   -0.25714E-05    51   0.249E-02
  82 F= -.11633909E+03 E0= -.11633909E+03  d E =-.742185E-03
 BRION: g(F)=  0.271E-02 g(S)=  0.000E+00 retain N=  1 mean eig= 6.55
 eig:   6.546
 bond charge predicted
       N       E                     dE             d eps       ncg     rms          rms(c)
DAV:   1    -0.116097279523E+03    0.23176E-03   -0.17247E-02    70   0.673E-01    0.258E-02
RMM:   2    -0.116097296744E+03   -0.17221E-04   -0.25507E-04    68   0.792E-02    0.156E-02
RMM:   3    -0.116097304054E+03   -0.73099E-05   -0.34747E-05    52   0.325E-02
  83 F= -.11633888E+03 E0= -.11633888E+03  d E =0.213904E-03
 BRION: g(F)=  0.281E-02 g(S)=  0.000E+00 retain N=  1 mean eig= 0.88
 eig:   0.877
 bond charge predicted
       N       E                     dE             d eps       ncg     rms          rms(c)
DAV:   1    -0.116097473627E+03   -0.17688E-03   -0.12654E-02    73   0.577E-01    0.218E-02
RMM:   2    -0.116097485297E+03   -0.11670E-04   -0.18503E-04    66   0.676E-02    0.127E-02
RMM:   3    -0.116097489283E+03   -0.39858E-05   -0.24838E-05    51   0.276E-02
  84 F= -.11633907E+03 E0= -.11633907E+03  d E =-.188426E-03
 BRION: g(F)=  0.256E-02 g(S)=  0.000E+00 retain N=  1 mean eig= 3.17
 eig:   3.174
 bond charge predicted
       N       E                     dE             d eps       ncg     rms          rms(c)
DAV:   1    -0.116097720283E+03   -0.23499E-03   -0.27675E-02    70   0.859E-01    0.329E-02
RMM:   2    -0.116097745632E+03   -0.25349E-04   -0.43901E-04    70   0.105E-01    0.202E-02
RMM:   3    -0.116097755762E+03   -0.10130E-04   -0.66292E-05    58   0.449E-02    0.803E-03
RMM:   4    -0.116097758264E+03   -0.25016E-05   -0.15550E-05    49   0.204E-02
  85 F= -.11633934E+03 E0= -.11633934E+03  d E =-.274334E-03
 BRION: g(F)=  0.256E-02 g(S)=  0.000E+00 retain N=  2 mean eig= 3.81
 eig:   3.811  3.811
 bond charge predicted
       N       E                     dE             d eps       ncg     rms          rms(c)
DAV:   1    -0.116098102908E+03   -0.34715E-03   -0.83032E-02    70   0.149E+00    0.561E-02
RMM:   2    -0.116098178231E+03   -0.75324E-04   -0.12940E-03    70   0.180E-01    0.342E-02
RMM:   3    -0.116098205907E+03   -0.27676E-04   -0.18859E-04    69   0.760E-02    0.136E-02
RMM:   4    -0.116098213241E+03   -0.73338E-05   -0.45099E-05    56   0.350E-02
  86 F= -.11633980E+03 E0= -.11633980E+03  d E =-.463132E-03
 BRION: g(F)=  0.248E-02 g(S)=  0.000E+00 retain N=  1 mean eig= 3.02
 eig:   3.019
 bond charge predicted
       N       E                     dE             d eps       ncg     rms          rms(c)
DAV:   1    -0.116098119665E+03    0.86242E-04   -0.34598E-03    70   0.301E-01    0.114E-02
RMM:   2    -0.116098123472E+03   -0.38068E-05   -0.48950E-05    53   0.352E-02
  87 F= -.11633971E+03 E0= -.11633971E+03  d E =0.919974E-04
 BRION: g(F)=  0.257E-02 g(S)=  0.000E+00 retain N=  2 mean eig= 2.00
 eig:   3.604  0.393
 bond charge predicted
       N       E                     dE             d eps       ncg     rms          rms(c)
DAV:   1    -0.116098285300E+03   -0.16564E-03   -0.12934E-02    70   0.583E-01    0.206E-02
RMM:   2    -0.116098298484E+03   -0.13183E-04   -0.18995E-04    66   0.696E-02    0.120E-02
RMM:   3    -0.116098302497E+03   -0.40128E-05   -0.27385E-05    52   0.287E-02
  88 F= -.11633989E+03 E0= -.11633989E+03  d E =-.183096E-03
 BRION: g(F)=  0.235E-02 g(S)=  0.000E+00 retain N=  2 mean eig= 1.40
 eig:   0.450  2.342
 bond charge predicted
       N       E                     dE             d eps       ncg     rms          rms(c)
DAV:   1    -0.116098365883E+03   -0.67399E-04   -0.15812E-03    76   0.208E-01    0.844E-03
RMM:   2    -0.116098367527E+03   -0.16440E-05   -0.27791E-05    52   0.268E-02
  89 F= -.11633996E+03 E0= -.11633996E+03  d E =-.655225E-04
 BRION: g(F)=  0.235E-02 g(S)=  0.000E+00 retain N=  2 mean eig= 1.14
 eig:   1.143  1.143
 bond charge predicted
       N       E                     dE             d eps       ncg     rms          rms(c)
DAV:   1    -0.116098564940E+03   -0.19906E-03   -0.20056E-02    70   0.735E-01    0.291E-02
RMM:   2    -0.116098581341E+03   -0.16400E-04   -0.31839E-04    70   0.896E-02    0.180E-02
RMM:   3    -0.116098589307E+03   -0.79663E-05   -0.47291E-05    56   0.381E-02
  90 F= -.11634019E+03 E0= -.11634019E+03  d E =-.226093E-03
 BRION: g(F)=  0.231E-02 g(S)=  0.000E+00 retain N=  2 mean eig= 1.62
 eig:   1.621  1.621
 bond charge predicted
       N       E                     dE             d eps       ncg     rms          rms(c)
DAV:   1    -0.116098562284E+03    0.19057E-04   -0.36539E-04    73   0.987E-02    0.444E-03
RMM:   2    -0.116098562880E+03   -0.59585E-06   -0.42849E-06    42   0.102E-02
  91 F= -.11634016E+03 E0= -.11634016E+03  d E =0.264574E-04
 BRION: g(F)=  0.236E-02 g(S)=  0.000E+00 retain N=  3 mean eig= 2.15
 eig:   2.381  2.029  2.029
 bond charge predicted
       N       E                     dE             d eps       ncg     rms          rms(c)
DAV:   1    -0.116092943267E+03    0.56190E-02   -0.67445E+00    70   0.134E+01    0.521E-01
RMM:   2    -0.116100365472E+03   -0.74222E-02   -0.10500E-01    70   0.163E+00    0.309E-01
RMM:   3    -0.116101579079E+03   -0.12136E-02   -0.15101E-02    70   0.683E-01    0.134E-01
RMM:   4    -0.116102020422E+03   -0.44134E-03   -0.35989E-03    71   0.319E-01    0.454E-02
RMM:   5    -0.116102143518E+03   -0.12310E-03   -0.96651E-04    79   0.148E-01    0.226E-02
RMM:   6    -0.116102167833E+03   -0.24315E-04   -0.12791E-04    66   0.624E-02    0.749E-03
RMM:   7    -0.116102181685E+03   -0.13853E-04   -0.20102E-05    49   0.257E-02    0.503E-03
RMM:   8    -0.116102205351E+03   -0.23665E-04   -0.84671E-06    46   0.147E-02    0.183E-03
RMM:   9    -0.116102210444E+03   -0.50931E-05   -0.17537E-06    44   0.691E-03
  92 F= -.11634388E+03 E0= -.11634388E+03  d E =-.371714E-02
 BRION: g(F)=  0.125E+01 g(S)=  0.000E+00 retain N=  3 mean eig= 1.25
 eig:   1.874  1.874  0.011
 bond charge predicted
       N       E                     dE             d eps       ncg     rms          rms(c)
DAV:   1    -0.116089983862E+03    0.12221E-01   -0.62306E+00    70   0.129E+01    0.516E-01
RMM:   2    -0.116096950274E+03   -0.69664E-02   -0.97831E-02    70   0.158E+00    0.298E-01
RMM:   3    -0.116098101108E+03   -0.11508E-02   -0.14121E-02    70   0.660E-01    0.135E-01
RMM:   4    -0.116098517247E+03   -0.41614E-03   -0.33563E-03    71   0.308E-01    0.474E-02
RMM:   5    -0.116098637369E+03   -0.12012E-03   -0.90319E-04    79   0.144E-01    0.218E-02
RMM:   6    -0.116098656701E+03   -0.19332E-04   -0.10409E-04    63   0.600E-02    0.647E-03
RMM:   7    -0.116098670505E+03   -0.13804E-04   -0.34384E-05    51   0.309E-02    0.736E-03
RMM:   8    -0.116098683184E+03   -0.12679E-04   -0.68519E-06    46   0.139E-02    0.198E-03
RMM:   9    -0.116098693529E+03   -0.10345E-04   -0.20866E-06    44   0.707E-03    0.722E-04
RMM:  10    -0.116098706562E+03   -0.13033E-04   -0.15778E-06    35   0.518E-03    0.182E-03
RMM:  11    -0.116098712762E+03   -0.62000E-05   -0.89172E-07    34   0.387E-03
  93 F= -.11634031E+03 E0= -.11634031E+03  d E =0.356457E-02
 BRION: g(F)=  0.224E-02 g(S)=  0.000E+00 retain N=  1 mean eig= 1.22
 eig:   1.220
 bond charge predicted
       N       E                     dE             d eps       ncg     rms          rms(c)
DAV:   1    -0.116098818978E+03   -0.11242E-03   -0.47250E-03    73   0.356E-01    0.137E-02
RMM:   2    -0.116098823952E+03   -0.49739E-05   -0.72189E-05    58   0.427E-02
  94 F= -.11634043E+03 E0= -.11634043E+03  d E =-.113508E-03
 BRION: g(F)=  0.217E-02 g(S)=  0.000E+00 retain N=  2 mean eig= 1.70
 eig:   1.699  1.699
 bond charge predicted
       N       E                     dE             d eps       ncg     rms          rms(c)
DAV:   1    -0.116098927162E+03   -0.10818E-03   -0.45195E-03    76   0.353E-01    0.157E-02
RMM:   2    -0.116098930530E+03   -0.33673E-05   -0.76637E-05    58   0.439E-02
  95 F= -.11634053E+03 E0= -.11634053E+03  d E =-.108313E-03
 BRION: g(F)=  0.216E-02 g(S)=  0.000E+00 retain N=  3 mean eig= 4.93
 eig:   6.908  6.908  0.962
 bond charge predicted
       N       E                     dE             d eps       ncg     rms          rms(c)
DAV:   1    -0.116098518658E+03    0.40850E-03   -0.17729E+00    70   0.692E+00    0.266E-01
RMM:   2    -0.116100324342E+03   -0.18057E-02   -0.27277E-02    70   0.834E-01    0.161E-01
RMM:   3    -0.116100710343E+03   -0.38600E-03   -0.39728E-03    70   0.352E-01    0.636E-02
RMM:   4    -0.116100849274E+03   -0.13893E-03   -0.93904E-04    71   0.163E-01    0.217E-02
RMM:   5    -0.116100881566E+03   -0.32293E-04   -0.25718E-04    73   0.762E-02    0.851E-03
RMM:   6    -0.116100886861E+03   -0.52945E-05   -0.28393E-05    49   0.318E-02
  96 F= -.11634253E+03 E0= -.11634253E+03  d E =-.199375E-02
 BRION: g(F)=  0.178E-02 g(S)=  0.000E+00
 BRIONS problems: POTIM should be increased
 retain N=  1 mean eig=32.38
 eig:  32.378
 bond charge predicted
       N       E                     dE             d eps       ncg     rms          rms(c)
DAV:   1    -0.116100686236E+03    0.19533E-03   -0.17151E-02    76   0.676E-01    0.264E-02
RMM:   2    -0.116100704783E+03   -0.18547E-04   -0.25426E-04    68   0.802E-02    0.158E-02
RMM:   3    -0.116100716503E+03   -0.11721E-04   -0.36046E-05    52   0.332E-02    0.593E-03
RMM:   4    -0.116100722039E+03   -0.55360E-05   -0.75708E-06    45   0.146E-02
  97 F= -.11634236E+03 E0= -.11634236E+03  d E =0.167952E-03
 BRION: g(F)=  0.182E-02 g(S)=  0.000E+00 retain N=  1 mean eig= 3.05
 eig:   3.046
 bond charge predicted
       N       E                     dE             d eps       ncg     rms          rms(c)
DAV:   1    -0.116100875093E+03   -0.15859E-03   -0.13686E-02    73   0.608E-01    0.232E-02
RMM:   2    -0.116100887228E+03   -0.12135E-04   -0.20547E-04    68   0.728E-02    0.139E-02
RMM:   3    -0.116100893375E+03   -0.61471E-05   -0.29910E-05    52   0.305E-02
  98 F= -.11634253E+03 E0= -.11634253E+03  d E =-.174404E-03
 BRION: g(F)=  0.170E-02 g(S)=  0.000E+00
 BRIONS problems: POTIM should be increased
 retain N=  1 mean eig= 8.55
 eig:   8.550
 bond charge predicted
       N       E                     dE             d eps       ncg     rms          rms(c)
DAV:   1    -0.116101135619E+03   -0.24839E-03   -0.44288E-02    70   0.110E+00    0.421E-02
RMM:   2    -0.116101173295E+03   -0.37675E-04   -0.69320E-04    70   0.134E-01    0.259E-02
RMM:   3    -0.116101191050E+03   -0.17755E-04   -0.10542E-04    60   0.573E-02    0.100E-02
RMM:   4    -0.116101195709E+03   -0.46594E-05   -0.24517E-05    52   0.261E-02
  99 F= -.11634284E+03 E0= -.11634284E+03  d E =-.308185E-03
 BRION: g(F)=  0.171E-02 g(S)=  0.000E+00 retain N=  1 mean eig= 6.24
 eig:   6.245
 bond charge predicted
       N       E                     dE             d eps       ncg     rms          rms(c)
DAV:   1    -0.116101062113E+03    0.12894E-03   -0.81495E-03    70   0.469E-01    0.180E-02
RMM:   2    -0.116101069546E+03   -0.74331E-05   -0.11845E-04    63   0.554E-02    0.107E-02
RMM:   3    -0.116101073535E+03   -0.39883E-05   -0.16567E-05    48   0.226E-02
 100 F= -.11634272E+03 E0= -.11634272E+03  d E =0.125336E-03
 BRION: g(F)=  0.176E-02 g(S)=  0.000E+00 retain N=  1 mean eig= 1.45
 eig:   1.454
 bond charge predicted
       N       E                     dE             d eps       ncg     rms          rms(c)
DAV:   1    -0.116101190471E+03   -0.12092E-03   -0.75872E-03    76   0.454E-01    0.172E-02
RMM:   2    -0.116101197012E+03   -0.65406E-05   -0.11058E-04    62   0.532E-02    0.101E-02
RMM:   3    -0.116101199731E+03   -0.27190E-05   -0.15282E-05    48   0.216E-02
 101 F= -.11634285E+03 E0= -.11634285E+03  d E =-.128497E-03
 BRION: g(F)=  0.165E-02 g(S)=  0.000E+00
 BRIONS problems: POTIM should be increased
 retain N=  1 mean eig=14.34
 eig:  14.337
 bond charge predicted
       N       E                     dE             d eps       ncg     rms          rms(c)
DAV:   1    -0.116101567517E+03   -0.37051E-03   -0.17746E-01    70   0.221E+00    0.845E-02
RMM:   2    -0.116101723841E+03   -0.15632E-03   -0.27074E-03    70   0.267E-01    0.514E-02
RMM:   3    -0.116101778403E+03   -0.54563E-04   -0.40153E-04    70   0.113E-01    0.195E-02
RMM:   4    -0.116101794725E+03   -0.16322E-04   -0.94459E-05    62   0.523E-02    0.685E-03
RMM:   5    -0.116101797565E+03   -0.28395E-05   -0.22871E-05    50   0.240E-02
 102 F= -.11634345E+03 E0= -.11634345E+03  d E =-.608137E-03
 BRION: g(F)=  0.121E+01 g(S)=  0.000E+00 retain N=  1 mean eig= 0.12
 eig:   0.116
 bond charge predicted
       N       E                     dE             d eps       ncg     rms          rms(c)
DAV:   1    -0.116101047518E+03    0.74721E-03   -0.15149E-01    70   0.204E+00    0.779E-02
RMM:   2    -0.116101180718E+03   -0.13320E-03   -0.22630E-03    70   0.243E-01    0.471E-02
RMM:   3    -0.116101230705E+03   -0.49987E-04   -0.32463E-04    70   0.102E-01    0.180E-02
RMM:   4    -0.116101245969E+03   -0.15263E-04   -0.74548E-05    59   0.466E-02    0.628E-03
RMM:   5    -0.116101248676E+03   -0.27074E-05   -0.17115E-05    50   0.207E-02
 103 F= -.11634290E+03 E0= -.11634290E+03  d E =0.557725E-03
 BRION: g(F)=  0.174E-02 g(S)=  0.000E+00 retain N=  1 mean eig= 0.12
 eig:   0.116
 bond charge predicted
       N       E                     dE             d eps       ncg     rms          rms(c)
DAV:   1    -0.116101299527E+03   -0.53558E-04   -0.11969E-03    84   0.181E-01    0.726E-03
RMM:   2    -0.116101300543E+03   -0.10159E-05   -0.16416E-05    47   0.203E-02
 104 F= -.11634295E+03 E0= -.11634295E+03  d E =-.519560E-04
 BRION: g(F)=  0.167E-02 g(S)=  0.000E+00 retain N=  2 mean eig= 0.43
 eig:   0.123  0.737
 bond charge predicted
       N       E                     dE             d eps       ncg     rms          rms(c)
DAV:   1    -0.116101333655E+03   -0.34128E-04   -0.52124E-04    73   0.122E-01    0.609E-03
RMM:   2    -0.116101334122E+03   -0.46659E-06   -0.91547E-06    45   0.154E-02
 105 F= -.11634298E+03 E0= -.11634298E+03  d E =-.351552E-04
 BRION: g(F)=  0.120E+01 g(S)=  0.000E+00 retain N=  2 mean eig= 0.37
 eig:   0.742  0.004
 bond charge predicted
       N       E                     dE             d eps       ncg     rms          rms(c)
DAV:   1    -0.116101330184E+03    0.34713E-05   -0.12654E-05    76   0.188E-02    0.118E-03
RMM:   2    -0.116101330274E+03   -0.89575E-07   -0.23060E-07    20   0.370E-03
 106 F= -.11634298E+03 E0= -.11634298E+03  d E =0.390652E-05
 BRION: g(F)=  0.120E+01 g(S)=  0.000E+00 retain N=  3 mean eig= 1.08
 eig:   1.976  1.212  0.037
 bond charge predicted
       N       E                     dE             d eps       ncg     rms          rms(c)
DAV:   1    -0.116101407590E+03   -0.77406E-04   -0.27482E-03    70   0.279E-01    0.111E-02
RMM:   2    -0.116101409733E+03   -0.21431E-05   -0.40776E-05    53   0.331E-02
 107 F= -.11634306E+03 E0= -.11634306E+03  d E =-.793038E-04
 BRION: g(F)=  0.120E+01 g(S)=  0.000E+00 retain N=  4 mean eig= 1.68
 eig:   2.906  2.906  0.892  0.035
 bond charge predicted
       N       E                     dE             d eps       ncg     rms          rms(c)
DAV:   1    -0.116101468560E+03   -0.60970E-04   -0.15604E-03    76   0.214E-01    0.103E-02
RMM:   2    -0.116101469427E+03   -0.86740E-06   -0.25757E-05    48   0.263E-02
 108 F= -.11634312E+03 E0= -.11634312E+03  d E =-.599763E-04
 BRION: g(F)=  0.121E+01 g(S)=  0.000E+00 retain N=  5 mean eig= 3.55
 eig:   7.841  7.841  1.034  1.034  0.023
 bond charge predicted
       N       E                     dE             d eps       ncg     rms          rms(c)
DAV:   1    -0.116101652839E+03   -0.18428E-03   -0.19926E-02    70   0.760E-01    0.309E-02
RMM:   2    -0.116101666335E+03   -0.13496E-04   -0.29382E-04    70   0.901E-02    0.191E-02
RMM:   3    -0.116101674298E+03   -0.79634E-05   -0.46316E-05    58   0.389E-02
 109 F= -.11634332E+03 E0= -.11634332E+03  d E =-.204877E-03
 BRION: g(F)=  0.121E+01 g(S)=  0.000E+00
 BRIONS problems: POTIM should be increased
 retain N=  1 mean eig=13.81
 eig:  13.812
 bond charge predicted
       N       E                     dE             d eps       ncg     rms          rms(c)
DAV:   1    -0.116078661962E+03    0.23004E-01   -0.12803E+01    70   0.192E+01    0.799E-01
RMM:   2    -0.116091797093E+03   -0.13135E-01   -0.19194E-01    70   0.231E+00    0.458E-01
RMM:   3    -0.116093614027E+03   -0.18169E-02   -0.28540E-02    70   0.970E-01    0.201E-01
RMM:   4    -0.116094413551E+03   -0.79952E-03   -0.67122E-03    71   0.453E-01    0.762E-02
RMM:   5    -0.116094641278E+03   -0.22773E-03   -0.17914E-03    78   0.211E-01    0.375E-02
RMM:   6    -0.116094689492E+03   -0.48214E-04   -0.25830E-04    72   0.916E-02    0.123E-02
RMM:   7    -0.116094709494E+03   -0.20001E-04   -0.46810E-05    53   0.384E-02    0.954E-03
RMM:   8    -0.116094742526E+03   -0.33032E-04   -0.17210E-05    46   0.210E-02    0.638E-03
RMM:   9    -0.116094743398E+03   -0.87207E-06   -0.32383E-06    45   0.100E-02
 110 F= -.11633638E+03 E0= -.11633638E+03  d E =0.694522E-02
 BRION: g(F)=  0.575E-01 g(S)=  0.000E+00 retain N=  1 mean eig= 2.57
 eig:   2.574
 bond charge predicted
       N       E                     dE             d eps       ncg     rms          rms(c)
DAV:   1    -0.116095462106E+03   -0.71958E-03   -0.76405E-02    76   0.148E+00    0.669E-02
RMM:   2    -0.116095524334E+03   -0.62227E-04   -0.12818E-03    70   0.186E-01    0.404E-02
RMM:   3    -0.116095539527E+03   -0.15194E-04   -0.19043E-04    70   0.776E-02    0.207E-02
RMM:   4    -0.116095551625E+03   -0.12098E-04   -0.60607E-05    60   0.409E-02    0.799E-03
RMM:   5    -0.116095554716E+03   -0.30911E-05   -0.10577E-05    46   0.175E-02
 111 F= -.11633722E+03 E0= -.11633722E+03  d E =-.840406E-03
 BRION: g(F)=  0.747E-01 g(S)=  0.000E+00 retain N=  2 mean eig= 1.55
 eig:   2.665  0.445
 bond charge predicted
       N       E                     dE             d eps       ncg     rms          rms(c)
DAV:   1    -0.116095703879E+03   -0.15225E-03   -0.32084E-03    81   0.304E-01    0.254E-02
RMM:   2    -0.116095700768E+03    0.31108E-05   -0.86424E-05    58   0.470E-02
 112 F= -.11633735E+03 E0= -.11633735E+03  d E =-.133646E-03
 BRION: g(F)=  0.804E-02 g(S)=  0.000E+00 retain N=  1 mean eig= 0.43
 eig:   0.432
 bond charge predicted
       N       E                     dE             d eps       ncg     rms          rms(c)
DAV:   1    -0.116095854526E+03   -0.15065E-03   -0.25602E-03    76   0.282E-01    0.169E-02
RMM:   2    -0.116095856051E+03   -0.15252E-05   -0.44306E-05    54   0.364E-02
 113 F= -.11633751E+03 E0= -.11633751E+03  d E =-.158363E-03
 BRION: g(F)=  0.663E-02 g(S)=  0.000E+00 retain N=  2 mean eig= 1.04
 eig:   0.469  1.602
 bond charge predicted
       N       E                     dE             d eps       ncg     rms          rms(c)
DAV:   1    -0.116096081660E+03   -0.22713E-03   -0.82114E-03    70   0.490E-01    0.251E-02
RMM:   2    -0.116096087212E+03   -0.55519E-05   -0.13257E-04    63   0.600E-02    0.146E-02
RMM:   3    -0.116096090127E+03   -0.29155E-05   -0.23125E-05    50   0.259E-02
 114 F= -.11633775E+03 E0= -.11633775E+03  d E =-.242468E-03
 BRION: g(F)=  0.619E-02 g(S)=  0.000E+00 retain N=  3 mean eig= 1.50
 eig:   0.457  2.016  2.016
 bond charge predicted
       N       E                     dE             d eps       ncg     rms          rms(c)
DAV:   1    -0.116096327940E+03   -0.24073E-03   -0.12266E-02    70   0.598E-01    0.285E-02
RMM:   2    -0.116096337147E+03   -0.92070E-05   -0.19482E-04    69   0.740E-02    0.160E-02
RMM:   3    -0.116096341153E+03   -0.40066E-05   -0.32982E-05    53   0.317E-02
 115 F= -.11633801E+03 E0= -.11633801E+03  d E =-.254619E-03
 BRION: g(F)=  0.412E-02 g(S)=  0.000E+00 retain N=  3 mean eig= 5.01
 eig:   6.873  6.873  1.292
 bond charge predicted
       N       E                     dE             d eps       ncg     rms          rms(c)
DAV:   1    -0.116096534030E+03   -0.19688E-03   -0.11010E-02    76   0.554E-01    0.238E-02
RMM:   2    -0.116096542896E+03   -0.88659E-05   -0.17189E-04    67   0.673E-02    0.142E-02
RMM:   3    -0.116096546808E+03   -0.39123E-05   -0.28823E-05    52   0.293E-02
 116 F= -.11633821E+03 E0= -.11633821E+03  d E =-.207272E-03
 BRION: g(F)=  0.372E-02 g(S)=  0.000E+00 retain N=  3 mean eig= 4.67
 eig:   6.112  6.112  1.789
 bond charge predicted
       N       E                     dE             d eps       ncg     rms          rms(c)
DAV:   1    -0.116096652275E+03   -0.10938E-03   -0.44774E-03    70   0.352E-01    0.145E-02
RMM:   2    -0.116096656321E+03   -0.40454E-05   -0.76134E-05    58   0.447E-02
 117 F= -.11633833E+03 E0= -.11633833E+03  d E =-.113138E-03
 BRION: g(F)=  0.370E-02 g(S)=  0.000E+00 retain N=  4 mean eig= 4.49
 eig:   7.605  7.605  1.679  1.071
 bond charge predicted
       N       E                     dE             d eps       ncg     rms          rms(c)
DAV:   1    -0.116096808919E+03   -0.15664E-03   -0.98500E-03    76   0.522E-01    0.227E-02
RMM:   2    -0.116096816023E+03   -0.71042E-05   -0.16111E-04    65   0.643E-02    0.143E-02
RMM:   3    -0.116096819881E+03   -0.38579E-05   -0.25124E-05    52   0.276E-02
 118 F= -.11633849E+03 E0= -.11633849E+03  d E =-.163280E-03
 BRION: g(F)=  0.326E-02 g(S)=  0.000E+00 retain N=  2 mean eig= 2.25
 eig:   2.247  2.247
 bond charge predicted
       N       E                     dE             d eps       ncg     rms          rms(c)
[...]
RMM:   3    -0.116102351301E+03   -0.46893E-05   -0.28921E-05    53   0.295E-02
 176 F= -.11634403E+03 E0= -.11634403E+03  d E =-.207437E-04
 BRION: g(F)=  0.799E-02 g(S)=  0.000E+00 retain N=  3 mean eig= 5.89
 eig:   1.904  7.878  7.878
 bond charge predicted
       N       E                     dE             d eps       ncg     rms          rms(c)
DAV:   1    -0.116102353539E+03   -0.69265E-05   -0.10369E-02    70   0.526E-01    0.196E-02
RMM:   2    -0.116102363518E+03   -0.99791E-05   -0.17196E-04    65   0.667E-02    0.122E-02
RMM:   3    -0.116102367819E+03   -0.43015E-05   -0.27134E-05    51   0.285E-02
 177 F= -.11634405E+03 E0= -.11634405E+03  d E =-.170347E-04
 BRION: g(F)=  0.782E-02 g(S)=  0.000E+00 retain N=  2 mean eig= 5.11
 eig:   5.105  5.105
 bond charge predicted
       N       E                     dE             d eps       ncg     rms          rms(c)
DAV:   1    -0.116102317596E+03    0.45922E-04   -0.62261E-02    70   0.129E+00    0.480E-02
RMM:   2    -0.116102375668E+03   -0.58072E-04   -0.99129E-04    70   0.160E-01    0.291E-02
RMM:   3    -0.116102397639E+03   -0.21971E-04   -0.14866E-04    63   0.678E-02    0.125E-02
RMM:   4    -0.116102403626E+03   -0.59870E-05   -0.34272E-05    54   0.312E-02
 178 F= -.11634408E+03 E0= -.11634408E+03  d E =-.348755E-04
 BRION: g(F)=  0.736E-02 g(S)=  0.000E+00
 BRIONS problems: POTIM should be increased
 retain N=  1 mean eig=10.21
 eig:  10.208
 bond charge predicted
       N       E                     dE             d eps       ncg     rms          rms(c)
DAV:   1    -0.116102398425E+03   -0.78575E-06   -0.91060E-03    70   0.493E-01    0.182E-02
RMM:   2    -0.116102407452E+03   -0.90267E-05   -0.14976E-04    65   0.618E-02    0.112E-02
RMM:   3    -0.116102410859E+03   -0.34070E-05   -0.22803E-05    50   0.260E-02
 179 F= -.11634409E+03 E0= -.11634409E+03  d E =-.778245E-05
 BRION: g(F)=  0.720E-02 g(S)=  0.000E+00 retain N=  2 mean eig= 7.26
 eig:   7.260  7.260
 bond charge predicted
       N       E                     dE             d eps       ncg     rms          rms(c)
DAV:   1    -0.116102402516E+03    0.49355E-05   -0.15185E-02    70   0.636E-01    0.239E-02
RMM:   2    -0.116102416797E+03   -0.14281E-04   -0.24623E-04    69   0.797E-02    0.146E-02
RMM:   3    -0.116102422485E+03   -0.56879E-05   -0.37822E-05    55   0.339E-02
 180 F= -.11634410E+03 E0= -.11634410E+03  d E =-.987849E-05
 BRION: g(F)=  0.698E-02 g(S)=  0.000E+00 retain N=  2 mean eig= 6.72
 eig:   6.718  6.718
 bond charge predicted
       N       E                     dE             d eps       ncg     rms          rms(c)
DAV:   1    -0.116102260421E+03    0.15638E-03   -0.13207E-01    70   0.187E+00    0.701E-02
RMM:   2    -0.116102386175E+03   -0.12575E-03   -0.20906E-03    70   0.232E-01    0.421E-02
RMM:   3    -0.116102430004E+03   -0.43829E-04   -0.31108E-04    70   0.981E-02    0.184E-02
RMM:   4    -0.116102442281E+03   -0.12277E-04   -0.74167E-05    58   0.458E-02    0.638E-03
RMM:   5    -0.116102444999E+03   -0.27177E-05   -0.16536E-05    49   0.204E-02
 181 F= -.11634412E+03 E0= -.11634412E+03  d E =-.213755E-04
 BRION: g(F)=  0.636E-02 g(S)=  0.000E+00
 BRIONS problems: POTIM should be increased
 retain N=  1 mean eig=18.37
 eig:  18.373
 bond charge predicted
       N       E                     dE             d eps       ncg     rms          rms(c)
DAV:   1    -0.116102431502E+03    0.10779E-04   -0.15040E-02    70   0.633E-01    0.236E-02
RMM:   2    -0.116102446141E+03   -0.14639E-04   -0.24360E-04    69   0.794E-02    0.140E-02
RMM:   3    -0.116102451608E+03   -0.54676E-05   -0.37667E-05    55   0.340E-02
 182 F= -.11634413E+03 E0= -.11634413E+03  d E =-.594007E-05
 BRION: g(F)=  0.615E-02 g(S)=  0.000E+00 retain N=  1 mean eig= 3.92
 eig:   3.920
 bond charge predicted
       N       E                     dE             d eps       ncg     rms          rms(c)
DAV:   1    -0.116102455377E+03   -0.92362E-05   -0.58001E-04    76   0.126E-01    0.552E-03
RMM:   2    -0.116102456361E+03   -0.98389E-06   -0.11947E-05    48   0.175E-02
 183 F= -.11634413E+03 E0= -.11634413E+03  d E =-.464488E-05
 BRION: g(F)=  0.600E-02 g(S)=  0.000E+00 retain N=  1 mean eig= 0.59
 eig:   0.588
 bond charge predicted
       N       E                     dE             d eps       ncg     rms          rms(c)
DAV:   1    -0.116102460058E+03   -0.46806E-05   -0.77224E-04    73   0.145E-01    0.617E-03
RMM:   2    -0.116102460985E+03   -0.92756E-06   -0.13676E-05    47   0.185E-02
 184 F= -.11634414E+03 E0= -.11634414E+03  d E =-.435896E-05
 BRION: g(F)=  0.580E-02 g(S)=  0.000E+00 retain N=  1 mean eig= 0.70
 eig:   0.703
 bond charge predicted
       N       E                     dE             d eps       ncg     rms          rms(c)
DAV:   1    -0.116102465799E+03   -0.57413E-05   -0.10827E-03    73   0.172E-01    0.735E-03
RMM:   2    -0.116102466865E+03   -0.10662E-05   -0.18397E-05    47   0.216E-02
 185 F= -.11634414E+03 E0= -.11634414E+03  d E =-.579590E-05
 BRION: g(F)=  0.565E-02 g(S)=  0.000E+00 retain N=  2 mean eig= 2.34
 eig:   2.344  2.344
 bond charge predicted
       N       E                     dE             d eps       ncg     rms          rms(c)
DAV:   1    -0.116102305268E+03    0.16053E-03   -0.17347E-01    70   0.216E+00    0.831E-02
RMM:   2    -0.116102463362E+03   -0.15809E-03   -0.27014E-03    70   0.264E-01    0.492E-02
RMM:   3    -0.116102518294E+03   -0.54932E-04   -0.39616E-04    70   0.111E-01    0.212E-02
RMM:   4    -0.116102533893E+03   -0.15599E-04   -0.91708E-05    60   0.515E-02    0.772E-03
RMM:   5    -0.116102537066E+03   -0.31721E-05   -0.21140E-05    50   0.233E-02
 186 F= -.11634421E+03 E0= -.11634421E+03  d E =-.675244E-04
 BRION: g(F)=  0.487E-02 g(S)=  0.000E+00
 BRIONS problems: POTIM should be increased
 retain N=  1 mean eig= 9.45
 eig:   9.454
 bond charge predicted
       N       E                     dE             d eps       ncg     rms          rms(c)
DAV:   1    -0.116102534236E+03   -0.34232E-06   -0.39528E-03    70   0.323E-01    0.124E-02
RMM:   2    -0.116102538374E+03   -0.41383E-05   -0.55635E-05    54   0.375E-02
 187 F= -.11634421E+03 E0= -.11634421E+03  d E =-.218758E-05
 BRION: g(F)=  0.476E-02 g(S)=  0.000E+00 retain N=  1 mean eig= 1.27
 eig:   1.270
 bond charge predicted
       N       E                     dE             d eps       ncg     rms          rms(c)
DAV:   1    -0.116102556173E+03   -0.21937E-04   -0.28019E-03    73   0.273E-01    0.925E-03
RMM:   2    -0.116102559600E+03   -0.34272E-05   -0.38063E-05    52   0.321E-02
 188 F= -.11634423E+03 E0= -.11634423E+03  d E =-.207739E-04
 BRION: g(F)=  0.457E-02 g(S)=  0.000E+00 retain N=  2 mean eig= 1.95
 eig:   2.724  1.174
 bond charge predicted
       N       E                     dE             d eps       ncg     rms          rms(c)
DAV:   1    -0.116102646163E+03   -0.89990E-04   -0.40412E-03    70   0.347E-01    0.154E-02
RMM:   2    -0.116102648535E+03   -0.23723E-05   -0.62940E-05    60   0.420E-02
 189 F= -.11634432E+03 E0= -.11634432E+03  d E =-.904580E-04
 BRION: g(F)=  0.419E-02 g(S)=  0.000E+00 retain N=  3 mean eig= 2.79
 eig:   4.295  2.036  2.036
 bond charge predicted
       N       E                     dE             d eps       ncg     rms          rms(c)
DAV:   1    -0.116102755981E+03   -0.10982E-03   -0.76180E-03    70   0.474E-01    0.204E-02
RMM:   2    -0.116102760725E+03   -0.47441E-05   -0.11845E-04    66   0.573E-02    0.128E-02
RMM:   3    -0.116102764306E+03   -0.35813E-05   -0.19758E-05    48   0.250E-02
 190 F= -.11634444E+03 E0= -.11634444E+03  d E =-.114716E-03
 BRION: g(F)=  0.392E-02 g(S)=  0.000E+00 retain N=  4 mean eig= 3.50
 eig:   4.633  4.266  4.266  0.852
 bond charge predicted
       N       E                     dE             d eps       ncg     rms          rms(c)
DAV:   1    -0.116102813184E+03   -0.52459E-04   -0.82969E-04    70   0.158E-01    0.694E-03
RMM:   2    -0.116102814084E+03   -0.90002E-06   -0.14479E-05    48   0.205E-02
 191 F= -.11634449E+03 E0= -.11634449E+03  d E =-.509231E-04
 BRION: g(F)=  0.376E-02 g(S)=  0.000E+00 retain N=  3 mean eig= 3.11
 eig:   6.039  0.805  2.476
 bond charge predicted
       N       E                     dE             d eps       ncg     rms          rms(c)
DAV:   1    -0.116102825458E+03   -0.12273E-04   -0.20949E-04    81   0.783E-02    0.428E-03
RMM:   2    -0.116102825731E+03   -0.27366E-06   -0.40620E-06    38   0.104E-02
 192 F= -.11634450E+03 E0= -.11634450E+03  d E =-.113135E-04
 BRION: g(F)=  0.375E-02 g(S)=  0.000E+00 retain N=  3 mean eig= 1.50
 eig:   3.064  0.939  0.501
 bond charge predicted
       N       E                     dE             d eps       ncg     rms          rms(c)
DAV:   1    -0.116102879716E+03   -0.54258E-04   -0.16644E-03    70   0.221E-01    0.909E-03
RMM:   2    -0.116102881006E+03   -0.12908E-05   -0.25286E-05    46   0.265E-02
 193 F= -.11634456E+03 E0= -.11634456E+03  d E =-.551072E-04
 BRION: g(F)=  0.359E-02 g(S)=  0.000E+00 retain N=  3 mean eig= 1.14
 eig:   2.381  0.520  0.520
 bond charge predicted
       N       E                     dE             d eps       ncg     rms          rms(c)
DAV:   1    -0.116102960459E+03   -0.80743E-04   -0.40828E-03    70   0.347E-01    0.150E-02
RMM:   2    -0.116102963059E+03   -0.26000E-05   -0.63272E-05    60   0.419E-02
 194 F= -.11634464E+03 E0= -.11634464E+03  d E =-.833662E-04
 BRION: g(F)=  0.343E-02 g(S)=  0.000E+00 retain N=  3 mean eig= 1.26
 eig:   2.116  0.530  1.135
 bond charge predicted
       N       E                     dE             d eps       ncg     rms          rms(c)
DAV:   1    -0.116102985579E+03   -0.25120E-04   -0.38086E-04    76   0.108E-01    0.680E-03
RMM:   2    -0.116102985788E+03   -0.20924E-06   -0.76615E-06    39   0.144E-02
 195 F= -.11634466E+03 E0= -.11634466E+03  d E =-.223578E-04
 BRION: g(F)=  0.339E-02 g(S)=  0.000E+00 retain N=  3 mean eig= 1.04
 eig:   2.231  0.452  0.452
 bond charge predicted
       N       E                     dE             d eps       ncg     rms          rms(c)
DAV:   1    -0.116103022249E+03   -0.36670E-04   -0.16227E-03    70   0.216E-01    0.883E-03
RMM:   2    -0.116103023735E+03   -0.14859E-05   -0.26239E-05    47   0.264E-02
 196 F= -.11634470E+03 E0= -.11634470E+03  d E =-.392810E-04
 BRION: g(F)=  0.330E-02 g(S)=  0.000E+00 retain N=  4 mean eig= 3.01
 eig:   7.185  3.229  0.622  0.986
 bond charge predicted
       N       E                     dE             d eps       ncg     rms          rms(c)
DAV:   1    -0.116103072870E+03   -0.50622E-04   -0.10483E-02    70   0.539E-01    0.220E-02
RMM:   2    -0.116103081000E+03   -0.81297E-05   -0.16877E-04    65   0.663E-02    0.134E-02
RMM:   3    -0.116103085188E+03   -0.41883E-05   -0.25691E-05    50   0.282E-02
 197 F= -.11634476E+03 E0= -.11634476E+03  d E =-.609225E-04
 BRION: g(F)=  0.274E-02 g(S)=  0.000E+00 retain N=  4 mean eig= 3.98
 eig:   6.834  4.235  4.235  0.623
 bond charge predicted
       N       E                     dE             d eps       ncg     rms          rms(c)
DAV:   1    -0.116103087427E+03   -0.64275E-05   -0.12113E-03    70   0.180E-01    0.717E-03
RMM:   2    -0.116103088789E+03   -0.13621E-05   -0.22747E-05    46   0.241E-02
 198 F= -.11634477E+03 E0= -.11634477E+03  d E =-.343453E-05
 BRION: g(F)=  0.249E-02 g(S)=  0.000E+00 retain N=  3 mean eig= 2.84
 eig:   7.159  0.674  0.674
 bond charge predicted
       N       E                     dE             d eps       ncg     rms          rms(c)
DAV:   1    -0.116103187467E+03   -0.10004E-03   -0.12716E-02    70   0.603E-01    0.243E-02
RMM:   2    -0.116103196760E+03   -0.92931E-05   -0.19759E-04    69   0.731E-02    0.149E-02
RMM:   3    -0.116103201548E+03   -0.47881E-05   -0.30519E-05    54   0.313E-02
 199 F= -.11634488E+03 E0= -.11634488E+03  d E =-.113353E-03
 BRION: g(F)=  0.203E-02 g(S)=  0.000E+00 retain N=  4 mean eig= 3.06
 eig:   6.320  3.890  1.550  0.478
 bond charge predicted
       N       E                     dE             d eps       ncg     rms          rms(c)
DAV:   1    -0.116103253729E+03   -0.56968E-04   -0.37002E-03    70   0.324E-01    0.130E-02
RMM:   2    -0.116103257151E+03   -0.34229E-05   -0.62539E-05    59   0.413E-02
 200 F= -.11634494E+03 E0= -.11634494E+03  d E =-.571302E-04
 BRION: g(F)=  0.181E-02 g(S)=  0.000E+00 retain N=  4 mean eig= 2.28
 eig:   4.685  1.428  1.428  1.564
 bond charge predicted
       N       E                     dE             d eps       ncg     rms          rms(c)
DAV:   1    -0.116103326351E+03   -0.72623E-04   -0.29136E-03    70   0.293E-01    0.137E-02
RMM:   2    -0.116103327991E+03   -0.16397E-05   -0.49541E-05    55   0.367E-02
 201 F= -.11634501E+03 E0= -.11634501E+03  d E =-.701217E-04
 BRION: g(F)=  0.165E-02 g(S)=  0.000E+00 retain N=  4 mean eig= 1.23
 eig:   1.393  1.393  0.258  1.861
 bond charge predicted
       N       E                     dE             d eps       ncg     rms          rms(c)
DAV:   1    -0.116103418851E+03   -0.92499E-04   -0.46023E-03    70   0.369E-01    0.162E-02
RMM:   2    -0.116103421861E+03   -0.30108E-05   -0.72352E-05    61   0.448E-02
 202 F= -.11634510E+03 E0= -.11634510E+03  d E =-.962809E-04
 BRION: g(F)=  0.157E-02 g(S)=  0.000E+00 retain N=  4 mean eig= 1.83
 eig:   2.439  2.439  1.902  0.556
 bond charge predicted
       N       E                     dE             d eps       ncg     rms          rms(c)
DAV:   1    -0.116103630607E+03   -0.21176E-03   -0.24445E-02    70   0.848E-01    0.354E-02
RMM:   2    -0.116103646781E+03   -0.16174E-04   -0.36553E-04    70   0.101E-01    0.219E-02
RMM:   3    -0.116103655658E+03   -0.88768E-05   -0.59247E-05    59   0.440E-02
 203 F= -.11634534E+03 E0= -.11634534E+03  d E =-.234832E-03
 BRION: g(F)=  0.135E-02 g(S)=  0.000E+00 retain N=  4 mean eig= 3.66
 eig:   6.280  6.280  1.049  1.049
 bond charge predicted
       N       E                     dE             d eps       ncg     rms          rms(c)
DAV:   1    -0.116103863621E+03   -0.21684E-03   -0.20725E-02    70   0.782E-01    0.316E-02
RMM:   2    -0.116103879594E+03   -0.15973E-04   -0.31316E-04    70   0.949E-02    0.196E-02
RMM:   3    -0.116103887119E+03   -0.75249E-05   -0.52117E-05    59   0.412E-02
 204 F= -.11634557E+03 E0= -.11634557E+03  d E =-.233817E-03
 BRION: g(F)=  0.121E-02 g(S)=  0.000E+00 retain N=  4 mean eig= 4.47
 eig:   7.622  7.622  1.318  1.318
 bond charge predicted
       N       E                     dE             d eps       ncg     rms          rms(c)
DAV:   1    -0.116104063508E+03   -0.18391E-03   -0.12007E-02    70   0.597E-01    0.243E-02
RMM:   2    -0.116104072606E+03   -0.90987E-05   -0.18193E-04    70   0.728E-02    0.152E-02
RMM:   3    -0.116104077383E+03   -0.47765E-05   -0.31678E-05    54   0.319E-02
 205 F= -.11634576E+03 E0= -.11634576E+03  d E =-.191885E-03
 BRION: g(F)=  0.104E-02 g(S)=  0.000E+00 retain N=  3 mean eig= 4.11
 eig:   5.431  5.431  1.478
 bond charge predicted
       N       E                     dE             d eps       ncg     rms          rms(c)
DAV:   1    -0.116104233359E+03   -0.16075E-03   -0.75247E-03    70   0.474E-01    0.197E-02
RMM:   2    -0.116104238826E+03   -0.54674E-05   -0.11192E-04    67   0.575E-02    0.123E-02
RMM:   3    -0.116104241981E+03   -0.31549E-05   -0.19864E-05    49   0.251E-02
 206 F= -.11634593E+03 E0= -.11634593E+03  d E =-.166592E-03
 BRION: g(F)=  0.922E-03 g(S)=  0.000E+00 retain N=  3 mean eig= 3.70
 eig:   4.902  4.902  1.310
 bond charge predicted
       N       E                     dE             d eps       ncg     rms          rms(c)
DAV:   1    -0.116104508627E+03   -0.26980E-03   -0.23631E-02    70   0.839E-01    0.346E-02
RMM:   2    -0.116104524334E+03   -0.15707E-04   -0.33328E-04    70   0.990E-02    0.212E-02
RMM:   3    -0.116104531933E+03   -0.75984E-05   -0.56163E-05    60   0.430E-02
 207 F= -.11634622E+03 E0= -.11634622E+03  d E =-.291346E-03
 BRION: g(F)=  0.804E-03 g(S)=  0.000E+00 retain N=  3 mean eig= 4.79
 eig:   6.467  6.467  1.433
 bond charge predicted
       N       E                     dE             d eps       ncg     rms          rms(c)
DAV:   1    -0.116104742749E+03   -0.21841E-03   -0.11083E-02    70   0.577E-01    0.247E-02
RMM:   2    -0.116104750303E+03   -0.75538E-05   -0.16085E-04    70   0.695E-02    0.154E-02
RMM:   3    -0.116104754625E+03   -0.43217E-05   -0.29145E-05    51   0.305E-02
 208 F= -.11634645E+03 E0= -.11634645E+03  d E =-.226124E-03
 BRION: g(F)=  0.714E-03 g(S)=  0.000E+00 retain N=  3 mean eig= 5.81
 eig:   1.757  7.835  7.835
 bond charge predicted
       N       E                     dE             d eps       ncg     rms          rms(c)
DAV:   1    -0.116104922000E+03   -0.17170E-03   -0.57310E-03    70   0.415E-01    0.181E-02
RMM:   2    -0.116104925558E+03   -0.35584E-05   -0.81962E-05    65   0.498E-02
 209 F= -.11634662E+03 E0= -.11634662E+03  d E =-.170973E-03
 BRION: g(F)=  0.651E-03 g(S)=  0.000E+00 retain N=  2 mean eig= 4.86
 eig:   4.857  4.857
 bond charge predicted
       N       E                     dE             d eps       ncg     rms          rms(c)
DAV:   1    -0.116105120843E+03   -0.19884E-03   -0.64791E-03    70   0.445E-01    0.216E-02
RMM:   2    -0.116105123549E+03   -0.27062E-05   -0.88706E-05    66   0.517E-02
 210 F= -.11634682E+03 E0= -.11634682E+03  d E =-.200459E-03
 BRION: g(F)=  0.598E-03 g(S)=  0.000E+00 retain N=  2 mean eig= 4.07
 eig:   4.065  4.065
 bond charge predicted
       N       E                     dE             d eps       ncg     rms          rms(c)
DAV:   1    -0.116105227039E+03   -0.10620E-03   -0.12639E-03    73   0.198E-01    0.112E-02
RMM:   2    -0.116105227535E+03   -0.49644E-06   -0.17811E-05    49   0.233E-02
 211 F= -.11634692E+03 E0= -.11634692E+03  d E =-.105382E-03
 BRION: g(F)=  0.567E-03 g(S)=  0.000E+00 retain N=  3 mean eig= 4.49
 eig:   6.199  6.199  1.078
 bond charge predicted
       N       E                     dE             d eps       ncg     rms          rms(c)
DAV:   1    -0.116105589292E+03   -0.36225E-03   -0.23421E-02    70   0.839E-01    0.371E-02
RMM:   2    -0.116105600491E+03   -0.11199E-04   -0.29309E-04    70   0.943E-02    0.226E-02
RMM:   3    -0.116105607572E+03   -0.70808E-05   -0.52284E-05    62   0.411E-02
 212 F= -.11634731E+03 E0= -.11634731E+03  d E =-.382602E-03
 BRION: g(F)=  0.479E-03 g(S)=  0.000E+00 retain N=  1 mean eig= 7.18
 eig:   7.178
 bond charge predicted
       N       E                     dE             d eps       ncg     rms          rms(c)
DAV:   1    -0.116105634942E+03   -0.34451E-04   -0.98497E-05    89   0.546E-02    0.449E-03
RMM:   2    -0.116105635281E+03   -0.33848E-06   -0.20719E-06    39   0.783E-03
 213 F= -.11634734E+03 E0= -.11634734E+03  d E =-.287367E-04
 BRION: g(F)=  0.469E-03 g(S)=  0.000E+00 retain N=  1 mean eig= 0.63
 eig:   0.631
 bond charge predicted
       N       E                     dE             d eps       ncg     rms          rms(c)
DAV:   1    -0.116105682995E+03   -0.48053E-04   -0.23415E-04    73   0.841E-02    0.437E-03
RMM:   2    -0.116105683299E+03   -0.30381E-06   -0.30792E-06    40   0.964E-03
 214 F= -.11634738E+03 E0= -.11634738E+03  d E =-.478598E-04
 BRION: g(F)=  0.445E-03 g(S)=  0.000E+00 retain N=  2 mean eig= 1.33
 eig:   1.333  1.333
 bond charge predicted
       N       E                     dE             d eps       ncg     rms          rms(c)
DAV:   1    -0.116106131542E+03   -0.44855E-03   -0.20038E-02    70   0.775E-01    0.372E-02
RMM:   2    -0.116106138235E+03   -0.66935E-05   -0.22243E-04    70   0.834E-02    0.224E-02
RMM:   3    -0.116106143737E+03   -0.55021E-05   -0.41912E-05    59   0.362E-02
 215 F= -.11634785E+03 E0= -.11634785E+03  d E =-.465987E-03
 BRION: g(F)=  0.314E-03 g(S)=  0.000E+00
 BRIONS problems: POTIM should be increased
 retain N=  1 mean eig=10.30
 eig:  10.295
 reached required accuracy - stopping structural energy minimisation
