<?xml version="1.0" encoding="ISO-8859-1"?>
<modeling>
 <generator>
  <i name="program" type="string">vasp </i>
  <i name="version" type="string">6.3.2  </i>
  <i name="subversion" type="string">27Jun22 (build Oct 05 2023 17:59:42) gamma-only                       parallel </i>
  <i name="platform" type="string">LinuxIFC </i>
  <i name="date" type="string">2024 04 09 </i>
  <i name="time" type="string">10:49:28 </i>
 </generator>
 <incar>
  <i type="string" name="PREC">NORMAL</i>
  <i type="string" name="ALGO">Fast</i>
  <i type="int" name="ISPIN">     1</i>
  <i type="int" name="IBRION">     1</i>
  <i name="EDIFF">      0.00001000</i>
  <i name="EDIFFG">     -0.05000000</i>
  <i type="int" name="NSW">  5000</i>
  <i name="ENCUT">    400.00000000</i>
  <i name="POTIM">      0.10000000</i>
  <i type="int" name="ISMEAR">     0</i>
  <i name="SIGMA">      0.05000000</i>
  <i type="logical" name="LWAVE"> F  </i>
  <i type="logical" name="LCHARG"> F  </i>
  <i type="string" name="GGA">PE</i>
  <i type="int" name="IVDW">    11</i>
  <i name="SPRING">     -5.00000000</i>
 </incar>
 <primitive_cell>
  <structure name="primitive_cell" >
   <crystal>
    <varray name="basis" >
     <v>      15.00000000       0.00000000       0.00000000 </v>
     <v>       0.00000000      15.00000000       0.00000000 </v>
     <v>       0.00000000       0.00000000      15.00000000 </v>
    </varray>
    <i name="volume">   3375.00000000 </i>
    <varray name="rec_basis" >
     <v>       0.06666667       0.00000000       0.00000000 </v>
     <v>       0.00000000       0.06666667       0.00000000 </v>
     <v>       0.00000000       0.00000000       0.06666667 </v>
    </varray>
   </crystal>
   <varray name="positions" >
    <v>       0.37435168       0.54436820       0.58346789 </v>
    <v>       0.37061891       0.45520871       0.57774742 </v>
    <v>       0.45139939       0.39850899       0.56595731 </v>
    <v>       0.46186681       0.59111420       0.58803261 </v>
    <v>       0.52900100       0.54373649       0.52696459 </v>
    <v>       0.54029450       0.44923839       0.56534974 </v>
    <v>       0.61050070       0.59622853       0.52412523 </v>
    <v>       0.60353349       0.39269664       0.51810792 </v>
    <v>       0.30682159       0.42022718       0.57699149 </v>
    <v>       0.45564805       0.34645825       0.61690445 </v>
    <v>       0.44615725       0.36198082       0.50339537 </v>
    <v>       0.31344897       0.58389295       0.58761175 </v>
    <v>       0.49129604       0.58851868       0.65504068 </v>
    <v>       0.45525791       0.66172394       0.57257136 </v>
    <v>       0.50526353       0.53911924       0.45825275 </v>
    <v>       0.56591740       0.45642671       0.63310211 </v>
    <v>       0.66762276       0.64872634       0.52738080 </v>
    <v>       0.64276020       0.33822360       0.47910969 </v>
   </varray>
  </structure>
  <varray name="primitive_index" >
   <v type="int" >        1 </v>
   <v type="int" >        2 </v>
   <v type="int" >        3 </v>
   <v type="int" >        4 </v>
   <v type="int" >        5 </v>
   <v type="int" >        6 </v>
   <v type="int" >        7 </v>
   <v type="int" >        8 </v>
   <v type="int" >        9 </v>
   <v type="int" >       10 </v>
   <v type="int" >       11 </v>
   <v type="int" >       12 </v>
   <v type="int" >       13 </v>
   <v type="int" >       14 </v>
   <v type="int" >       15 </v>
   <v type="int" >       16 </v>
   <v type="int" >       17 </v>
   <v type="int" >       18 </v>
  </varray>
 </primitive_cell>
 <kpoints>
  <generation param="Monkhorst-Pack">
   <v type="int" name="divisions">       1        1        1 </v>
   <v name="usershift">      0.00000000       0.00000000       0.00000000 </v>
   <v name="genvec1">      1.00000000       0.00000000       0.00000000 </v>
   <v name="genvec2">      0.00000000       1.00000000       0.00000000 </v>
   <v name="genvec3">      0.00000000       0.00000000       1.00000000 </v>
   <v name="shift">      0.00000000       0.00000000       0.00000000 </v>
  </generation>
  <varray name="kpointlist" >
   <v>       0.00000000       0.00000000       0.00000000 </v>
  </varray>
  <varray name="weights" >
   <v>       1.00000000 </v>
  </varray>
 </kpoints>
 <parameters>
  <separator name="general" >
   <i type="string" name="SYSTEM">unknown system</i>
   <i type="logical" name="LCOMPAT"> F  </i>
  </separator>
  <separator name="electronic" >
   <i type="string" name="PREC">normal</i>
   <i name="ENMAX">    400.00000000</i>
   <i name="ENAUG">    644.87300000</i>
   <i name="EDIFF">      0.00001000</i>
   <i type="int" name="IALGO">    68</i>
   <i type="int" name="IWAVPR">    11</i>
   <i type="int" name="NBANDS">    35</i>
   <i type="int" name="NBANDSLOW">    -1</i>
   <i type="int" name="NBANDSHIGH">    -1</i>
   <i name="NELECT">     50.00000000</i>
   <i type="int" name="TURBO">     0</i>
   <i type="int" name="IRESTART">     0</i>
   <i type="int" name="NREBOOT">     0</i>
   <i type="int" name="NMIN">     0</i>
   <i name="EREF">      0.00000000</i>
   <separator name="electronic smearing" >
    <i type="int" name="ISMEAR">     0</i>
    <i name="SIGMA">      0.05000000</i>
    <i name="KSPACING">      0.50000000</i>
    <i type="logical" name="KGAMMA"> T  </i>
    <i type="logical" name="KBLOWUP"> T  </i>
   </separator>
   <separator name="electronic projectors" >
    <i type="logical" name="LREAL"> F  </i>
    <v name="ROPT">      0.00000000      0.00000000      0.00000000</v>
    <i type="int" name="LMAXPAW">  -100</i>
    <i type="int" name="LMAXMIX">     2</i>
    <i type="logical" name="NLSPLINE"> F  </i>
   </separator>
   <separator name="electronic startup" >
    <i type="int" name="ISTART">     0</i>
    <i type="int" name="ICHARG">     2</i>
    <i type="int" name="INIWAV">     1</i>
   </separator>
   <separator name="electronic spin" >
    <i type="int" name="ISPIN">     1</i>
    <i type="logical" name="LNONCOLLINEAR"> F  </i>
    <v name="MAGMOM">      1.00000000      1.00000000      1.00000000      1.00000000      1.00000000      1.00000000      1.00000000      1.00000000      1.00000000      1.00000000      1.00000000      1.00000000      1.00000000      1.00000000      1.00000000      1.00000000      1.00000000      1.00000000</v>
    <i name="NUPDOWN">     -1.00000000</i>
    <i type="logical" name="LSORBIT"> F  </i>
    <v name="SAXIS">      0.00000000      0.00000000      1.00000000</v>
    <i type="logical" name="LSPIRAL"> F  </i>
    <v name="QSPIRAL">      0.00000000      0.00000000      0.00000000</v>
    <i type="logical" name="LZEROZ"> F  </i>
   </separator>
   <separator name="electronic exchange-correlation" >
    <i type="logical" name="LASPH"> F  </i>
    <i type="logical" name="LMETAGGA"> F  </i>
   </separator>
   <separator name="electronic convergence" >
    <i type="int" name="NELM">    60</i>
    <i type="int" name="NELMDL">    -5</i>
    <i type="int" name="NELMIN">     2</i>
    <i name="ENINI">    400.00000000</i>
    <separator name="electronic convergence detail" >
     <i type="logical" name="LDIAG"> T  </i>
     <i type="logical" name="LSUBROT"> F  </i>
     <i name="WEIMIN">      0.00100000</i>
     <i name="EBREAK">      0.00000007</i>
     <i name="DEPER">      0.30000000</i>
     <i type="int" name="NRMM">     4</i>
     <i name="TIME">      0.40000000</i>
    </separator>
   </separator>
   <separator name="electronic mixer" >
    <i name="AMIX">      0.40000000</i>
    <i name="BMIX">      1.00000000</i>
    <i name="AMIN">      0.10000000</i>
    <i name="AMIX_MAG">      1.60000000</i>
    <i name="BMIX_MAG">      1.00000000</i>
    <separator name="electronic mixer details" >
     <i type="int" name="IMIX">     4</i>
     <i type="logical" name="MIXFIRST"> F  </i>
     <i type="int" name="MAXMIX">   -45</i>
     <i name="WC">    100.00000000</i>
     <i type="int" name="INIMIX">     1</i>
     <i type="int" name="MIXPRE">     1</i>
     <i type="int" name="MREMOVE">     5</i>
    </separator>
   </separator>
   <separator name="electronic dipolcorrection" >
    <i type="logical" name="LDIPOL"> F  </i>
    <i type="logical" name="LMONO"> F  </i>
    <i type="int" name="IDIPOL">     0</i>
    <i name="EPSILON">      1.00000000</i>
    <v name="DIPOL">   -100.00000000   -100.00000000   -100.00000000</v>
    <i name="EFIELD">      0.00000000</i>
   </separator>
  </separator>
  <separator name="grids" >
   <i type="int" name="NGX">    80</i>
   <i type="int" name="NGY">    80</i>
   <i type="int" name="NGZ">    80</i>
   <i type="int" name="NGXF">   160</i>
   <i type="int" name="NGYF">   160</i>
   <i type="int" name="NGZF">   160</i>
   <i type="logical" name="ADDGRID"> F  </i>
  </separator>
  <separator name="ionic" >
   <i type="int" name="NSW">  5000</i>
   <i type="int" name="IBRION">     1</i>
   <i type="int" name="MDALGO">     0</i>
   <i type="int" name="ISIF">     2</i>
   <i name="PSTRESS">      0.00000000</i>
   <i name="EDIFFG">     -0.05000000</i>
   <i type="int" name="NFREE">     0</i>
   <i name="POTIM">      0.10000000</i>
   <i name="SMASS">     -3.00000000</i>
   <i name="SCALEE">      1.00000000</i>
  </separator>
  <separator name="ionic md" >
   <i name="TEBEG">      0.00010000</i>
   <i name="TEEND">      0.00010000</i>
   <i type="int" name="NBLOCK">     1</i>
   <i type="int" name="KBLOCK">  5000</i>
   <i type="int" name="NPACO">   256</i>
   <i name="APACO">     10.00000000</i>
  </separator>
  <separator name="symmetry" >
   <i type="int" name="ISYM">     2</i>
   <i name="SYMPREC">      0.00001000</i>
  </separator>
  <separator name="dos" >
   <i type="int" name="LORBIT">     0</i>
   <v name="RWIGS">     -1.00000000     -1.00000000     -1.00000000</v>
   <i type="int" name="NEDOS">   301</i>
   <i name="EMIN">     10.00000000</i>
   <i name="EMAX">    -10.00000000</i>
   <i name="EFERMI">      0.00000000</i>
  </separator>
  <separator name="writing" >
   <i type="int" name="NWRITE">     2</i>
   <i type="logical" name="LWAVE"> F  </i>
   <i type="logical" name="LDOWNSAMPLE"> F  </i>
   <i type="logical" name="LCHARG"> F  </i>
   <i type="logical" name="LPARD"> F  </i>
   <i type="logical" name="LVTOT"> F  </i>
   <i type="logical" name="LVHAR"> F  </i>
   <i type="logical" name="LELF"> F  </i>
   <i type="logical" name="LOPTICS"> F  </i>
   <v name="STM">      0.00000000      0.00000000      0.00000000      0.00000000      0.00000000      0.00000000      0.00000000</v>
  </separator>
  <separator name="performance" >
   <i type="int" name="NPAR">     1</i>
   <i type="int" name="NSIM">     4</i>
   <i type="int" name="NBLK">    -1</i>
   <i type="logical" name="LPLANE"> T  </i>
   <i type="logical" name="LSCALAPACK"> T  </i>
   <i type="logical" name="LSCAAWARE"> F  </i>
   <i type="logical" name="LSCALU"> F  </i>
   <i type="logical" name="LASYNC"> F  </i>
   <i type="logical" name="LORBITALREAL"> F  </i>
  </separator>
  <separator name="miscellaneous" >
   <i type="int" name="IDIOT">     3</i>
   <i type="int" name="PHON_NSTRUCT">    -1</i>
   <i type="logical" name="LMUSIC"> F  </i>
   <v name="POMASS">     12.01100000      1.00000000     14.00100000</v>
   <v name="DARWINR">      0.00000000      0.00000000      0.00000000</v>
   <v name="DARWINV">      1.00000000      1.00000000      1.00000000</v>
   <i type="logical" name="LCORR"> T  </i>
  </separator>
  <i type="logical" name="GGA_COMPAT"> T  </i>
  <i type="logical" name="LBERRY"> F  </i>
  <i type="int" name="ICORELEVEL">     0</i>
  <i type="logical" name="LDAU"> F  </i>
  <i type="int" name="I_CONSTRAINED_M">     0</i>
  <separator name="electronic exchange-correlation" >
   <i type="string" name="GGA">PE</i>
   <i type="int" name="VOSKOWN">     0</i>
   <i type="logical" name="LHFCALC"> F  </i>
   <i type="string" name="PRECFOCK"></i>
   <i type="logical" name="LSYMGRAD"> F  </i>
   <i type="logical" name="LHFONE"> F  </i>
   <i type="logical" name="LRHFCALC"> F  </i>
   <i type="logical" name="LTHOMAS"> F  </i>
   <i type="logical" name="LMODELHF"> F  </i>
   <i type="logical" name="LFOCKACE"> F  </i>
   <i name="ENCUT4O">     -1.00000000</i>
   <i type="int" name="EXXOEP">     0</i>
   <i type="int" name="FOURORBIT">     0</i>
   <i name="AEXX">      0.00000000</i>
   <i name="HFALPHA">      0.00000000</i>
   <i name="MCALPHA">      0.00000000</i>
   <i name="ALDAX">      1.00000000</i>
   <i name="AGGAX">      1.00000000</i>
   <i name="ALDAC">      1.00000000</i>
   <i name="AGGAC">      1.00000000</i>
   <i type="int" name="NKREDX">     1</i>
   <i type="int" name="NKREDY">     1</i>
   <i type="int" name="NKREDZ">     1</i>
   <i type="logical" name="SHIFTRED"> F  </i>
   <i type="logical" name="ODDONLY"> F  </i>
   <i type="logical" name="EVENONLY"> F  </i>
   <i type="int" name="LMAXFOCK">     0</i>
   <i type="int" name="NMAXFOCKAE">     0</i>
   <i type="logical" name="LFOCKAEDFT"> F  </i>
   <i name="HFSCREEN">      0.00000000</i>
   <i name="HFSCREENC">      0.00000000</i>
   <i type="int" name="NBANDSGWLOW">     0</i>
  </separator>
  <separator name="vdW DFT" >
   <i type="logical" name="LUSE_VDW"> F  </i>
   <i name="Zab_VDW">     -0.84910000</i>
   <i name="PARAM1">      0.12340000</i>
   <i name="PARAM2">      1.00000000</i>
   <i name="PARAM3">      0.00000000</i>
  </separator>
  <separator name="model GW" >
   <i type="int" name="MODEL_GW">     0</i>
   <i name="MODEL_EPS0">    112.50000000</i>
   <i name="MODEL_ALPHA">      1.00000000</i>
  </separator>
  <separator name="linear response parameters" >
   <i type="logical" name="LEPSILON"> F  </i>
   <i type="logical" name="LRPA"> F  </i>
   <i type="logical" name="LNABLA"> F  </i>
   <i type="logical" name="LVEL"> F  </i>
   <i name="CSHIFT">      0.10000000</i>
   <i name="OMEGAMAX">     -1.00000000</i>
   <i name="DEG_THRESHOLD">      0.00200000</i>
   <i name="RTIME">     -0.10000000</i>
   <i name="WPLASMAI">      0.00000000</i>
   <v name="DFIELD">      0.00000000      0.00000000      0.00000000</v>
   <v name="WPLASMA">      0.00000000      0.00000000      0.00000000      0.00000000      0.00000000      0.00000000      0.00000000      0.00000000      0.00000000</v>
  </separator>
  <separator name="orbital magnetization" >
   <i type="logical" name="NUCIND"> F  </i>
   <v name="MAGPOS">      0.00000000      0.00000000      0.00000000</v>
   <i type="logical" name="LNICSALL"> T  </i>
   <i type="logical" name="ORBITALMAG"> F  </i>
   <i type="logical" name="LMAGBLOCH"> F  </i>
   <i type="logical" name="LCHIMAG"> F  </i>
   <i type="logical" name="LGAUGE"> T  </i>
   <i type="int" name="MAGATOM">     0</i>
   <v name="MAGDIPOL">      0.00000000      0.00000000      0.00000000</v>
   <v name="AVECCONST">      0.00000000      0.00000000      0.00000000</v>
  </separator>
  <separator name="response functions" >
   <i type="logical" name="LFINITE_TEMPERATURE"> F  </i>
   <i type="logical" name="LADDER"> F  </i>
   <i type="logical" name="LRPAFORCE"> F  </i>
   <i type="logical" name="LFXC"> F  </i>
   <i type="logical" name="LHARTREE"> T  </i>
   <i type="int" name="IBSE">     0</i>
   <v type="int" name="KPOINT">    -1     0     0     0</v>
   <i type="logical" name="LTCTC"> F  </i>
   <i type="logical" name="LTCTE"> F  </i>
   <i type="logical" name="LTETE"> F  </i>
   <i type="logical" name="LTRIPLET"> F  </i>
   <i type="logical" name="LFXCEPS"> F  </i>
   <i type="logical" name="LFXHEG"> F  </i>
   <i type="int" name="NATURALO">     2</i>
   <i type="logical" name="LHOLEGF"> F  </i>
   <i type="logical" name="L2ORDER"> F  </i>
   <i type="logical" name="LDMP1"> F  </i>
   <i type="logical" name="LMP2LT"> F  </i>
   <i type="logical" name="LSMP2LT"> F  </i>
   <i type="logical" name="LGWLF"> F  </i>
   <i name="ENCUTGW">     -2.00000000</i>
   <i name="ENCUTGWSOFT">     -2.00000000</i>
   <i name="ENCUTLF">     -1.00000000</i>
   <i type="logical" name="LESF_SPLINES"> F  </i>
   <i type="int" name="LMAXMP2">    -1</i>
   <i name="SCISSOR">      0.00000000</i>
   <i type="int" name="NOMEGA">     0</i>
   <i type="int" name="NOMEGAR">     0</i>
   <i type="int" name="NBANDSGW">    -1</i>
   <i type="int" name="NBANDSO">    -1</i>
   <i type="int" name="NBANDSV">    -1</i>
   <i type="int" name="NELMGW">     1</i>
   <i type="int" name="NELMHF">     1</i>
   <i type="int" name="DIM">     3</i>
   <i type="int" name="IESPILON">     4</i>
   <i type="int" name="ANTIRES">     0</i>
   <i name="OMEGAMAX">    -30.00000000</i>
   <i name="OMEGAMIN">    -30.00000000</i>
   <i name="OMEGATL">   -200.00000000</i>
   <i type="int" name="OMEGAGRID">     0</i>
   <i name="CSHIFT">     -0.10000000</i>
   <i type="logical" name="LSELFENERGY"> F  </i>
   <i type="logical" name="LSPECTRAL"> F  </i>
   <i type="logical" name="LSPECTRALGW"> F  </i>
   <i type="logical" name="LSINGLES"> F  </i>
   <i type="logical" name="LFERMIGW"> F  </i>
   <i type="logical" name="ODDONLYGW"> F  </i>
   <i type="logical" name="EVENONLYGW"> F  </i>
   <i type="int" name="NKREDLFX">     1</i>
   <i type="int" name="NKREDLFY">     1</i>
   <i type="int" name="NKREDLFZ">     1</i>
   <i type="int" name="MAXMEM">  2800</i>
   <i type="int" name="TELESCOPE">     0</i>
   <i type="int" name="NTAUPAR">    -1</i>
   <i type="int" name="NOMEGAPAR">    -1</i>
   <i name="DAMP_NEWTON">      0.80000001</i>
   <i name="LAMBDA">      1.00000000</i>
  </separator>
  <separator name="External order field" >
   <i name="OFIELD_KAPPA">      0.00000000</i>
   <v name="OFIELD_K">      0.00000000      0.00000000      0.00000000</v>
   <i name="OFIELD_Q6_NEAR">      0.00000000</i>
   <i name="OFIELD_Q6_FAR">      0.00000000</i>
   <i name="OFIELD_A">      0.00000000</i>
  </separator>
  <separator name="optional k-points parameters" >
   <i type="int" name="KPOINTS_OPT_MODE">     1</i>
   <i type="logical" name="LKPOINTS_OPT"> F  </i>
  </separator>
 </parameters>
 <atominfo>
  <atoms>      18 </atoms>
  <types>       3 </types>
  <array name="atoms" >
   <dimension dim="1">ion</dimension>
   <field type="string">element</field>
   <field type="int">atomtype</field>
   <set>
    <rc><c>C </c><c>   1</c></rc>
    <rc><c>C </c><c>   1</c></rc>
    <rc><c>C </c><c>   1</c></rc>
    <rc><c>C </c><c>   1</c></rc>
    <rc><c>C </c><c>   1</c></rc>
    <rc><c>C </c><c>   1</c></rc>
    <rc><c>C </c><c>   1</c></rc>
    <rc><c>C </c><c>   1</c></rc>
    <rc><c>H </c><c>   2</c></rc>
    <rc><c>H </c><c>   2</c></rc>
    <rc><c>H </c><c>   2</c></rc>
    <rc><c>H </c><c>   2</c></rc>
    <rc><c>H </c><c>   2</c></rc>
    <rc><c>H </c><c>   2</c></rc>
    <rc><c>H </c><c>   2</c></rc>
    <rc><c>H </c><c>   2</c></rc>
    <rc><c>N </c><c>   3</c></rc>
    <rc><c>N </c><c>   3</c></rc>
   </set>
  </array>
  <array name="atomtypes" >
   <dimension dim="1">type</dimension>
   <field type="int">atomspertype</field>
   <field type="string">element</field>
   <field>mass</field>
   <field>valence</field>
   <field type="string">pseudopotential</field>
   <set>
    <rc><c>   8</c><c>C </c><c>     12.01100000</c><c>      4.00000000</c><c>  PAW_PBE C 08Apr2002                   </c></rc>
    <rc><c>   8</c><c>H </c><c>      1.00000000</c><c>      1.00000000</c><c>  PAW_PBE H 15Jun2001                   </c></rc>
    <rc><c>   2</c><c>N </c><c>     14.00100000</c><c>      5.00000000</c><c>  PAW_PBE N 08Apr2002                   </c></rc>
   </set>
  </array>
 </atominfo>
 <structure name="initialpos" >
  <crystal>
   <varray name="basis" >
    <v>      15.00000000       0.00000000       0.00000000 </v>
    <v>       0.00000000      15.00000000       0.00000000 </v>
    <v>       0.00000000       0.00000000      15.00000000 </v>
   </varray>
   <i name="volume">   3375.00000000 </i>
   <varray name="rec_basis" >
    <v>       0.06666667       0.00000000       0.00000000 </v>
    <v>       0.00000000       0.06666667       0.00000000 </v>
    <v>       0.00000000       0.00000000       0.06666667 </v>
   </varray>
  </crystal>
  <varray name="positions" >
   <v>       0.37435168       0.54436820       0.58346789 </v>
   <v>       0.37061891       0.45520871       0.57774742 </v>
   <v>       0.45139939       0.39850899       0.56595731 </v>
   <v>       0.46186681       0.59111420       0.58803261 </v>
   <v>       0.52900100       0.54373649       0.52696459 </v>
   <v>       0.54029450       0.44923839       0.56534974 </v>
   <v>       0.61050070       0.59622853       0.52412523 </v>
   <v>       0.60353349       0.39269664       0.51810792 </v>
   <v>       0.30682159       0.42022718       0.57699149 </v>
   <v>       0.45564805       0.34645825       0.61690445 </v>
   <v>       0.44615725       0.36198082       0.50339537 </v>
   <v>       0.31344897       0.58389295       0.58761175 </v>
   <v>       0.49129604       0.58851868       0.65504068 </v>
   <v>       0.45525791       0.66172394       0.57257136 </v>
   <v>       0.50526353       0.53911924       0.45825275 </v>
   <v>       0.56591740       0.45642671       0.63310211 </v>
   <v>       0.66762276       0.64872634       0.52738080 </v>
   <v>       0.64276020       0.33822360       0.47910969 </v>
  </varray>
 </structure>
 <calculation>
  <scstep>
   <time name="dav">    3.42    3.43</time>
   <time name="total">    4.87    4.90</time>
   <energy>
    <i name="alphaZ">      3.36120243 </i>
    <i name="ewald">   3143.44147142 </i>
    <i name="hartreedc">  -4386.02519144 </i>
    <i name="XCdc">    161.01671888 </i>
    <i name="pawpsdc">   1295.11405375 </i>
    <i name="pawaedc">  -1302.12229068 </i>
    <i name="eentropy">     -0.00498930 </i>
    <i name="bandstr">   -277.67808143 </i>
    <i name="atom">   1805.79685712 </i>
    <i name="e_fr_energy">    442.89975075 </i>
    <i name="e_wo_entrp">    442.90474005 </i>
    <i name="e_0_energy">    442.90224540 </i>
   </energy>
  </scstep>
  <scstep>
   <time name="dav">    4.64    4.71</time>
   <time name="total">    4.64    4.71</time>
   <energy>
    <i name="e_fr_energy">     89.47990746 </i>
    <i name="e_wo_entrp">     89.47990746 </i>
    <i name="e_0_energy">     89.47990746 </i>
   </energy>
  </scstep>
  <scstep>
   <time name="dav">    3.91    4.13</time>
   <time name="total">    3.91    4.13</time>
   <energy>
    <i name="e_fr_energy">   -103.17708572 </i>
    <i name="e_wo_entrp">   -103.17708572 </i>
    <i name="e_0_energy">   -103.17708572 </i>
   </energy>
  </scstep>
  <scstep>
   <time name="dav">    2.69    2.69</time>
   <time name="total">    2.69    2.69</time>
   <energy>
    <i name="e_fr_energy">   -126.77136823 </i>
    <i name="e_wo_entrp">   -126.77136823 </i>
    <i name="e_0_energy">   -126.77136823 </i>
   </energy>
  </scstep>
  <scstep>
   <time name="dav">    5.32    5.32</time>
   <time name="total">    5.62    5.62</time>
   <energy>
    <i name="e_fr_energy">   -127.23060530 </i>
    <i name="e_wo_entrp">   -127.23060530 </i>
    <i name="e_0_energy">   -127.23060530 </i>
   </energy>
  </scstep>
  <scstep>
   <time name="diag">    0.39    0.39</time>
   <time name="diis">    2.29    2.29</time>
   <time name="orth">    0.01    0.01</time>
   <time name="total">    4.46    4.46</time>
   <energy>
    <i name="e_fr_energy">   -118.29273799 </i>
    <i name="e_wo_entrp">   -118.29273799 </i>
    <i name="e_0_energy">   -118.29273799 </i>
   </energy>
  </scstep>
  <scstep>
   <time name="diag">    0.36    0.36</time>
   <time name="diis">    2.29    2.29</time>
   <time name="orth">    0.01    0.01</time>
   <time name="total">    4.47    4.47</time>
   <energy>
    <i name="e_fr_energy">   -116.10884753 </i>
    <i name="e_wo_entrp">   -116.10884753 </i>
    <i name="e_0_energy">   -116.10884753 </i>
   </energy>
  </scstep>
  <scstep>
   <time name="diag">    0.36    0.36</time>
   <time name="diis">    2.43    2.43</time>
   <time name="orth">    0.01    0.01</time>
   <time name="total">    4.53    4.53</time>
   <energy>
    <i name="e_fr_energy">   -115.93999135 </i>
    <i name="e_wo_entrp">   -115.93999135 </i>
    <i name="e_0_energy">   -115.93999135 </i>
   </energy>
  </scstep>
  <scstep>
   <time name="diag">    0.91    0.91</time>
   <time name="diis">    4.79    4.79</time>
   <time name="orth">    0.03    0.03</time>
   <time name="total">    9.28    9.29</time>
   <energy>
    <i name="e_fr_energy">   -115.85896004 </i>
    <i name="e_wo_entrp">   -115.85896004 </i>
    <i name="e_0_energy">   -115.85896004 </i>
   </energy>
  </scstep>
  <scstep>
   <time name="diag">    0.88    0.88</time>
   <time name="diis">    5.61    5.61</time>
   <time name="orth">    0.03    0.03</time>
   <time name="total">    9.97    9.97</time>
   <energy>
    <i name="e_fr_energy">   -115.86925840 </i>
    <i name="e_wo_entrp">   -115.86925840 </i>
    <i name="e_0_energy">   -115.86925840 </i>
   </energy>
  </scstep>
  <scstep>
   <time name="diag">    0.37    0.37</time>
   <time name="diis">    2.22    2.22</time>
   <time name="orth">    0.01    0.01</time>
   <time name="total">    4.71    4.71</time>
   <energy>
    <i name="e_fr_energy">   -115.88182877 </i>
    <i name="e_wo_entrp">   -115.88182877 </i>
    <i name="e_0_energy">   -115.88182877 </i>
   </energy>
  </scstep>
  <scstep>
   <time name="diag">    0.38    0.38</time>
   <time name="diis">    2.29    2.29</time>
   <time name="orth">    0.01    0.01</time>
   <time name="total">    4.51    4.51</time>
   <energy>
    <i name="e_fr_energy">   -115.88112717 </i>
    <i name="e_wo_entrp">   -115.88112717 </i>
    <i name="e_0_energy">   -115.88112717 </i>
   </energy>
  </scstep>
  <scstep>
   <time name="diag">    0.36    0.36</time>
   <time name="diis">    2.30    2.30</time>
   <time name="orth">    0.01    0.01</time>
   <time name="total">    4.47    4.47</time>
   <energy>
    <i name="e_fr_energy">   -115.89710059 </i>
    <i name="e_wo_entrp">   -115.89710059 </i>
    <i name="e_0_energy">   -115.89710059 </i>
   </energy>
  </scstep>
  <scstep>
   <time name="diag">    0.38    0.38</time>
   <time name="diis">    2.23    2.23</time>
   <time name="orth">    0.01    0.01</time>
   <time name="total">    4.43    4.43</time>
   <energy>
    <i name="e_fr_energy">   -115.89638492 </i>
    <i name="e_wo_entrp">   -115.89638492 </i>
    <i name="e_0_energy">   -115.89638492 </i>
   </energy>
  </scstep>
  <scstep>
   <time name="diag">    0.36    0.36</time>
   <time name="diis">    2.15    2.15</time>
   <time name="orth">    0.01    0.01</time>
   <time name="total">    4.26    4.26</time>
   <energy>
    <i name="e_fr_energy">   -115.90488014 </i>
    <i name="e_wo_entrp">   -115.90488014 </i>
    <i name="e_0_energy">   -115.90488014 </i>
   </energy>
  </scstep>
  <scstep>
   <time name="diag">    0.34    0.34</time>
   <time name="diis">    2.21    2.21</time>
   <time name="orth">    0.01    0.01</time>
   <time name="total">    4.24    4.24</time>
   <energy>
    <i name="e_fr_energy">   -115.90659988 </i>
    <i name="e_wo_entrp">   -115.90659988 </i>
    <i name="e_0_energy">   -115.90659988 </i>
   </energy>
  </scstep>
  <scstep>
   <time name="diag">    0.33    0.33</time>
   <time name="diis">    2.01    2.01</time>
   <time name="orth">    0.01    0.01</time>
   <time name="total">    4.04    4.04</time>
   <energy>
    <i name="e_fr_energy">   -115.90808298 </i>
    <i name="e_wo_entrp">   -115.90808298 </i>
    <i name="e_0_energy">   -115.90808298 </i>
   </energy>
  </scstep>
  <scstep>
   <time name="diag">    0.37    0.37</time>
   <time name="diis">    2.11    2.11</time>
   <time name="orth">    0.01    0.01</time>
   <time name="total">    4.25    4.25</time>
   <energy>
    <i name="e_fr_energy">   -115.90937293 </i>
    <i name="e_wo_entrp">   -115.90937293 </i>
    <i name="e_0_energy">   -115.90937293 </i>
   </energy>
  </scstep>
  <scstep>
   <time name="diag">    0.36    0.36</time>
   <time name="diis">    1.89    1.89</time>
   <time name="orth">    0.01    0.01</time>
   <time name="total">    4.06    4.06</time>
   <energy>
    <i name="e_fr_energy">   -115.90982671 </i>
    <i name="e_wo_entrp">   -115.90982671 </i>
    <i name="e_0_energy">   -115.90982671 </i>
   </energy>
  </scstep>
  <scstep>
   <time name="diag">    0.36    0.36</time>
   <time name="diis">    2.06    2.06</time>
   <time name="orth">    0.01    0.01</time>
   <time name="total">    4.32    4.32</time>
   <energy>
    <i name="e_fr_energy">   -115.91003979 </i>
    <i name="e_wo_entrp">   -115.91003979 </i>
    <i name="e_0_energy">   -115.91003979 </i>
   </energy>
  </scstep>
  <scstep>
   <time name="diag">    0.28    0.28</time>
   <time name="diis">    1.22    1.22</time>
   <time name="orth">    0.01    0.01</time>
   <time name="total">    3.08    3.08</time>
   <energy>
    <i name="e_fr_energy">   -115.91013747 </i>
    <i name="e_wo_entrp">   -115.91013747 </i>
    <i name="e_0_energy">   -115.91013747 </i>
   </energy>
  </scstep>
  <scstep>
   <time name="diag">    0.26    0.26</time>
   <time name="diis">    0.96    0.96</time>
   <time name="orth">    0.01    0.01</time>
   <time name="total">    2.49    2.49</time>
   <energy>
    <i name="e_fr_energy">   -115.91016261 </i>
    <i name="e_wo_entrp">   -115.91016261 </i>
    <i name="e_0_energy">   -115.91016261 </i>
   </energy>
  </scstep>
  <scstep>
   <time name="diag">    0.24    0.24</time>
   <time name="diis">    0.82    0.82</time>
   <time name="orth">    0.00    0.00</time>
   <time name="total">    2.28    2.28</time>
   <energy>
    <i name="e_fr_energy">   -115.91018144 </i>
    <i name="e_wo_entrp">   -115.91018144 </i>
    <i name="e_0_energy">   -115.91018144 </i>
   </energy>
  </scstep>
  <scstep>
   <time name="diag">    0.14    0.14</time>
   <time name="diis">    0.48    0.48</time>
   <time name="orth">    0.00    0.00</time>
   <time name="total">    1.36    1.37</time>
   <energy>
    <i name="alphaZ">      3.36120243 </i>
    <i name="ewald">   3143.44147142 </i>
    <i name="hartreedc">  -4591.30181893 </i>
    <i name="XCdc">    171.16547919 </i>
    <i name="pawpsdc">   4424.23846507 </i>
    <i name="pawaedc">  -4432.58305829 </i>
    <i name="eentropy">     -0.00000000 </i>
    <i name="bandstr">   -640.02878688 </i>
    <i name="atom">   1805.79685712 </i>
    <i name="e_fr_energy">   -115.91018888 </i>
    <i name="e_wo_entrp">   -115.91018888 </i>
    <i name="e_0_energy">   -115.91018888 </i>
   </energy>
  </scstep>
  <structure>
   <crystal>
    <varray name="basis" >
     <v>      15.00000000       0.00000000       0.00000000 </v>
     <v>       0.00000000      15.00000000       0.00000000 </v>
     <v>       0.00000000       0.00000000      15.00000000 </v>
    </varray>
    <i name="volume">   3375.00000000 </i>
    <varray name="rec_basis" >
     <v>       0.06666667       0.00000000       0.00000000 </v>
     <v>       0.00000000       0.06666667       0.00000000 </v>
     <v>       0.00000000       0.00000000       0.06666667 </v>
    </varray>
   </crystal>
   <varray name="positions" >
    <v>       0.37435168       0.54436820       0.58346789 </v>
    <v>       0.37061891       0.45520871       0.57774742 </v>
    <v>       0.45139939       0.39850899       0.56595731 </v>
    <v>       0.46186681       0.59111420       0.58803261 </v>
    <v>       0.52900100       0.54373649       0.52696459 </v>
    <v>       0.54029450       0.44923839       0.56534974 </v>
    <v>       0.61050070       0.59622853       0.52412523 </v>
    <v>       0.60353349       0.39269664       0.51810792 </v>
    <v>       0.30682159       0.42022718       0.57699149 </v>
    <v>       0.45564805       0.34645825       0.61690445 </v>
    <v>       0.44615725       0.36198082       0.50339537 </v>
    <v>       0.31344897       0.58389295       0.58761175 </v>
    <v>       0.49129604       0.58851868       0.65504068 </v>
    <v>       0.45525791       0.66172394       0.57257136 </v>
    <v>       0.50526353       0.53911924       0.45825275 </v>
    <v>       0.56591740       0.45642671       0.63310211 </v>
    <v>       0.66762276       0.64872634       0.52738080 </v>
    <v>       0.64276020       0.33822360       0.47910969 </v>
   </varray>
  </structure>
  <varray name="forces" >
   <v>      -0.31079861      -0.46897216       0.44501840 </v>
   <v>      -0.12318691       0.31405092      -0.12498572 </v>
   <v>      -0.17850891      -0.08683085       0.20863764 </v>
   <v>      -0.02548719       0.15659958      -0.20426308 </v>
   <v>       0.39401766       0.12453907      -0.00349258 </v>
   <v>       0.43994612      -0.14651750      -0.14156514 </v>
   <v>      -0.10327827       0.05345168       0.20953956 </v>
   <v>      -0.17454050       0.02197591      -0.10468887 </v>
   <v>      -0.08044565       0.03247403      -0.06037505 </v>
   <v>      -0.06432637      -0.17670893       0.23248020 </v>
   <v>      -0.17596778      -0.22323798      -0.41257707 </v>
   <v>      -0.04377143       0.00188394       0.06999947 </v>
   <v>      -0.12634643       0.09354585       0.27607385 </v>
   <v>       0.04369082       0.27548264      -0.27651540 </v>
   <v>      -0.33949443      -0.02956132      -0.26116247 </v>
   <v>       0.04071079       0.09961406       0.39486364 </v>
   <v>       0.41809010       0.05811533      -0.08116353 </v>
   <v>       0.40969699      -0.09990426      -0.16582385 </v>
  </varray>
  <varray name="stress" >
   <v>       0.41282448       0.17889281      -0.19477874 </v>
   <v>       0.17889281      -0.22771247       0.17142385 </v>
   <v>      -0.19477874       0.17142385      -0.27055750 </v>
  </varray>
  <energy>
   <i name="e_fr_energy">   -116.15209977 </i>
   <i name="e_wo_entrp">   -116.15209977 </i>
   <i name="e_0_energy">   -116.15209977 </i>
  </energy>
  <time name="totalsc">  139.09  139.86</time>
 </calculation>
 <calculation>
  <scstep>
   <time name="dav">    3.60    3.68</time>
   <time name="total">    6.78    7.00</time>
   <energy>
    <i name="alphaZ">      3.36120243 </i>
    <i name="ewald">   3138.37965239 </i>
    <i name="hartreedc">  -4587.24444145 </i>
    <i name="XCdc">    171.10399041 </i>
    <i name="pawpsdc">   4424.21482089 </i>
    <i name="pawaedc">  -4432.55943994 </i>
    <i name="eentropy">     -0.00000000 </i>
    <i name="bandstr">   -638.98143702 </i>
    <i name="atom">   1805.79685712 </i>
    <i name="e_fr_energy">   -115.92879516 </i>
    <i name="e_wo_entrp">   -115.92879516 </i>
    <i name="e_0_energy">   -115.92879516 </i>
   </energy>
  </scstep>
  <scstep>
   <time name="diag">    0.52    0.52</time>
   <time name="diis">    3.10    3.15</time>
   <time name="orth">    0.02    0.04</time>
   <time name="total">    6.23    6.35</time>
   <energy>
    <i name="e_fr_energy">   -115.92893906 </i>
    <i name="e_wo_entrp">   -115.92893906 </i>
    <i name="e_0_energy">   -115.92893906 </i>
   </energy>
  </scstep>
  <scstep>
   <time name="diag">    0.60    0.60</time>
   <time name="diis">    3.21    3.24</time>
   <time name="orth">    0.01    0.01</time>
   <time name="total">    6.19    6.23</time>
   <energy>
    <i name="e_fr_energy">   -115.92885979 </i>
    <i name="e_wo_entrp">   -115.92885979 </i>
    <i name="e_0_energy">   -115.92885979 </i>
   </energy>
  </scstep>
  <scstep>
   <time name="diag">    0.54    0.59</time>
   <time name="diis">    2.92    3.18</time>
   <time name="orth">    0.02    0.03</time>
   <time name="total">    5.60    5.93</time>
   <energy>
    <i name="e_fr_energy">   -115.92890878 </i>
    <i name="e_wo_entrp">   -115.92890878 </i>
    <i name="e_0_energy">   -115.92890878 </i>
   </energy>
  </scstep>
  <scstep>
   <time name="diag">    0.33    0.33</time>
   <time name="diis">    2.29    2.29</time>
   <time name="orth">    0.01    0.01</time>
   <time name="total">    4.06    4.06</time>
   <energy>
    <i name="alphaZ">      3.36120243 </i>
    <i name="ewald">   3138.37965239 </i>
    <i name="hartreedc">  -4586.54102398 </i>
    <i name="XCdc">    171.06791076 </i>
    <i name="pawpsdc">   4411.25976807 </i>
    <i name="pawaedc">  -4419.59256544 </i>
    <i name="eentropy">     -0.00000000 </i>
    <i name="bandstr">   -639.66071487 </i>
    <i name="atom">   1805.79685712 </i>
    <i name="e_fr_energy">   -115.92891353 </i>
    <i name="e_wo_entrp">   -115.92891353 </i>
    <i name="e_0_energy">   -115.92891353 </i>
   </energy>
  </scstep>
  <structure>
   <crystal>
    <varray name="basis" >
     <v>      15.00000000       0.00000000       0.00000000 </v>
     <v>       0.00000000      15.00000000       0.00000000 </v>
     <v>       0.00000000       0.00000000      15.00000000 </v>
    </varray>
    <i name="volume">   3375.00000000 </i>
    <varray name="rec_basis" >
     <v>       0.06666667       0.00000000       0.00000000 </v>
     <v>       0.00000000       0.06666667       0.00000000 </v>
     <v>       0.00000000       0.00000000       0.06666667 </v>
    </varray>
   </crystal>
   <varray name="positions" >
    <v>       0.37414976       0.54406542       0.58375511 </v>
    <v>       0.37053702       0.45540991       0.57766647 </v>
    <v>       0.45128490       0.39845341       0.56611773 </v>
    <v>       0.46185129       0.59120859       0.58790802 </v>
    <v>       0.52924650       0.54381734       0.52695395 </v>
    <v>       0.54057550       0.44914121       0.56523793 </v>
    <v>       0.61042761       0.59626040       0.52424362 </v>
    <v>       0.60339090       0.39270751       0.51799066 </v>
    <v>       0.30676829       0.42024646       0.57693871 </v>
    <v>       0.45562091       0.34639015       0.61711143 </v>
    <v>       0.44603582       0.36179514       0.50319446 </v>
    <v>       0.31342080       0.58389640       0.58764768 </v>
    <v>       0.49122023       0.58855644       0.65522138 </v>
    <v>       0.45529099       0.66189741       0.57241402 </v>
    <v>       0.50502642       0.53910967       0.45807999 </v>
    <v>       0.56597192       0.45648417       0.63332077 </v>
    <v>       0.66789048       0.64875513       0.52730659 </v>
    <v>       0.64296984       0.33815755       0.47893293 </v>
   </varray>
  </structure>
  <varray name="forces" >
   <v>      -0.15446509       0.01510590       0.39196684 </v>
   <v>      -0.13769606      -0.11844075      -0.10606631 </v>
   <v>      -0.11482124      -0.10854491       0.02798024 </v>
   <v>      -0.04455912       0.07687664      -0.06524730 </v>
   <v>       0.16735255       0.03735571      -0.09632919 </v>
   <v>       0.25845306      -0.05836511       0.03527128 </v>
   <v>       0.30624614       0.38337405       0.18693832 </v>
   <v>       0.15960035      -0.35823875      -0.36366739 </v>
   <v>      -0.06135694       0.04644010      -0.06173838 </v>
   <v>      -0.07537333      -0.14880276       0.21164224 </v>
   <v>      -0.16563899      -0.13976463      -0.24776549 </v>
   <v>      -0.05289427      -0.01516791       0.08010039 </v>
   <v>      -0.15953440       0.11023181       0.16278970 </v>
   <v>       0.02899497       0.22521889      -0.26670860 </v>
   <v>      -0.25753231      -0.01569822      -0.13399413 </v>
   <v>       0.02899478       0.07346846       0.27819728 </v>
   <v>       0.10538406      -0.21803668      -0.08790834 </v>
   <v>       0.16884585       0.21298816       0.05453883 </v>
  </varray>
  <varray name="stress" >
   <v>       0.11655470       0.11568020      -0.21572805 </v>
   <v>       0.11568020      -0.33061750       0.07842171 </v>
   <v>      -0.21572805       0.07842171      -0.56361956 </v>
  </varray>
  <energy>
   <i name="e_fr_energy">   -116.17077045 </i>
   <i name="e_wo_entrp">   -116.17077045 </i>
   <i name="e_0_energy">   -116.17077045 </i>
  </energy>
  <time name="totalsc">   55.10   55.81</time>
 </calculation>
 <calculation>
  <scstep>
   <time name="dav">    2.17    2.17</time>
   <time name="total">    3.95    3.95</time>
   <energy>
    <i name="alphaZ">      3.36120243 </i>
    <i name="ewald">   3135.79860308 </i>
    <i name="hartreedc">  -4583.72368770 </i>
    <i name="XCdc">    171.05703328 </i>
    <i name="pawpsdc">   4409.27997385 </i>
    <i name="pawaedc">  -4417.61244862 </i>
    <i name="eentropy">     -0.00000000 </i>
    <i name="bandstr">   -639.89729678 </i>
    <i name="atom">   1805.79685712 </i>
    <i name="e_fr_energy">   -115.93976334 </i>
    <i name="e_wo_entrp">   -115.93976334 </i>
    <i name="e_0_energy">   -115.93976334 </i>
   </energy>
  </scstep>
  <scstep>
   <time name="diag">    0.36    0.37</time>
   <time name="diis">    2.20    2.20</time>
   <time name="orth">    0.01    0.01</time>
   <time name="total">    4.42    4.42</time>
   <energy>
    <i name="e_fr_energy">   -115.93952844 </i>
    <i name="e_wo_entrp">   -115.93952844 </i>
    <i name="e_0_energy">   -115.93952844 </i>
   </energy>
  </scstep>
  <scstep>
   <time name="diag">    0.36    0.36</time>
   <time name="diis">    2.45    2.46</time>
   <time name="orth">    0.01    0.01</time>
   <time name="total">    4.69    4.69</time>
   <energy>
    <i name="e_fr_energy">   -115.93941532 </i>
    <i name="e_wo_entrp">   -115.93941532 </i>
    <i name="e_0_energy">   -115.93941532 </i>
   </energy>
  </scstep>
  <scstep>
   <time name="diag">    0.35    0.35</time>
   <time name="diis">    2.28    2.28</time>
   <time name="orth">    0.01    0.01</time>
   <time name="total">    4.43    4.43</time>
   <energy>
    <i name="e_fr_energy">   -115.93944294 </i>
    <i name="e_wo_entrp">   -115.93944294 </i>
    <i name="e_0_energy">   -115.93944294 </i>
   </energy>
  </scstep>
  <scstep>
   <time name="diag">    0.36    0.36</time>
   <time name="diis">    1.97    1.97</time>
   <time name="orth">    0.01    0.01</time>
   <time name="total">    3.76    3.76</time>
   <energy>
    <i name="alphaZ">      3.36120243 </i>
    <i name="ewald">   3135.79860308 </i>
    <i name="hartreedc">  -4584.01415311 </i>
    <i name="XCdc">    171.08115001 </i>
    <i name="pawpsdc">   4417.57277639 </i>
    <i name="pawaedc">  -4425.91454468 </i>
    <i name="eentropy">     -0.00000000 </i>
    <i name="bandstr">   -639.62133264 </i>
    <i name="atom">   1805.79685712 </i>
    <i name="e_fr_energy">   -115.93944140 </i>
    <i name="e_wo_entrp">   -115.93944140 </i>
    <i name="e_0_energy">   -115.93944140 </i>
   </energy>
  </scstep>
  <structure>
   <crystal>
    <varray name="basis" >
     <v>      15.00000000       0.00000000       0.00000000 </v>
     <v>       0.00000000      15.00000000       0.00000000 </v>
     <v>       0.00000000       0.00000000      15.00000000 </v>
    </varray>
    <i name="volume">   3375.00000000 </i>
    <varray name="rec_basis" >
     <v>       0.06666667       0.00000000       0.00000000 </v>
     <v>       0.00000000       0.06666667       0.00000000 </v>
     <v>       0.00000000       0.00000000       0.06666667 </v>
    </varray>
   </crystal>
   <varray name="positions" >
    <v>       0.37404631       0.54407460       0.58401427 </v>
    <v>       0.37044409       0.45533098       0.57759619 </v>
    <v>       0.45120937       0.39838211       0.56615784 </v>
    <v>       0.46182256       0.59125397       0.58787061 </v>
    <v>       0.52935017       0.54384254       0.52688339 </v>
    <v>       0.54074445       0.44910034       0.56524414 </v>
    <v>       0.61062418       0.59651122       0.52435352 </v>
    <v>       0.60347101       0.39246853       0.51770965 </v>
    <v>       0.30672665       0.42027575       0.57688644 </v>
    <v>       0.45558284       0.34632991       0.61729835 </v>
    <v>       0.44592006       0.36166824       0.50308439 </v>
    <v>       0.31338589       0.58388819       0.58769285 </v>
    <v>       0.49111950       0.58861059       0.65533138 </v>
    <v>       0.45531420       0.66204287       0.57225511 </v>
    <v>       0.50484112       0.53910716       0.45798781 </v>
    <v>       0.56601454       0.45652705       0.63347494 </v>
    <v>       0.66795901       0.64860428       0.52723051 </v>
    <v>       0.64303663       0.33829652       0.47891109 </v>
   </varray>
  </structure>
  <varray name="forces" >
   <v>      -0.08674599      -0.07577489       0.32146001 </v>
   <v>      -0.08501289       0.00318494      -0.06704080 </v>
   <v>      -0.05764089      -0.13018800      -0.01709966 </v>
   <v>      -0.02857419       0.08542962      -0.02850468 </v>
   <v>       0.16371864       0.05646947      -0.08584184 </v>
   <v>       0.22918298      -0.09059130       0.01022608 </v>
   <v>      -0.25065381      -0.11417008       0.13392988 </v>
   <v>      -0.24121915       0.19361239       0.06303163 </v>
   <v>      -0.10010072       0.01994623      -0.06446200 </v>
   <v>      -0.07967834      -0.11856035       0.17230667 </v>
   <v>      -0.15095376      -0.10940509      -0.17623178 </v>
   <v>      -0.08397264       0.00259645       0.09226718 </v>
   <v>      -0.16268793       0.12041161       0.11370287 </v>
   <v>       0.02646339       0.16658838      -0.24732744 </v>
   <v>      -0.20907240      -0.00621386      -0.08161969 </v>
   <v>       0.02938791       0.05367146       0.21444028 </v>
   <v>       0.57382470       0.21542461      -0.05478913 </v>
   <v>       0.51373509      -0.27243160      -0.29844756 </v>
  </varray>
  <varray name="stress" >
   <v>       0.24423552       0.12454869      -0.29416603 </v>
   <v>       0.12454869      -0.19587365       0.19776399 </v>
   <v>      -0.29416603       0.19776399      -0.63089589 </v>
  </varray>
  <energy>
   <i name="e_fr_energy">   -116.18138407 </i>
   <i name="e_wo_entrp">   -116.18138407 </i>
   <i name="e_0_energy">   -116.18138407 </i>
  </energy>
  <time name="totalsc">   44.80   44.83</time>
 </calculation>
 <calculation>
  <scstep>
   <time name="dav">    2.26    2.26</time>
   <time name="total">    4.05    4.05</time>
   <energy>
    <i name="alphaZ">      3.36120243 </i>
    <i name="ewald">   3127.35857045 </i>
    <i name="hartreedc">  -4577.19148031 </i>
    <i name="XCdc">    170.98264767 </i>
    <i name="pawpsdc">   4416.84459527 </i>
    <i name="pawaedc">  -4425.18650392 </i>
    <i name="eentropy">     -0.00000000 </i>
    <i name="bandstr">   -637.92022041 </i>
    <i name="atom">   1805.79685712 </i>
    <i name="e_fr_energy">   -115.95433170 </i>
    <i name="e_wo_entrp">   -115.95433170 </i>
    <i name="e_0_energy">   -115.95433170 </i>
   </energy>
  </scstep>
  <scstep>
   <time name="diag">    0.36    0.36</time>
   <time name="diis">    2.18    2.18</time>
   <time name="orth">    0.01    0.01</time>
   <time name="total">    4.38    4.38</time>
   <energy>
    <i name="e_fr_energy">   -115.95454002 </i>
    <i name="e_wo_entrp">   -115.95454002 </i>
    <i name="e_0_energy">   -115.95454002 </i>
   </energy>
  </scstep>
  <scstep>
   <time name="diag">    0.35    0.35</time>
   <time name="diis">    2.25    2.25</time>
   <time name="orth">    0.01    0.01</time>
   <time name="total">    4.31    4.32</time>
   <energy>
    <i name="e_fr_energy">   -115.95450510 </i>
    <i name="e_wo_entrp">   -115.95450510 </i>
    <i name="e_0_energy">   -115.95450510 </i>
   </energy>
  </scstep>
  <scstep>
   <time name="diag">    0.36    0.36</time>
   <time name="diis">    2.22    2.22</time>
   <time name="orth">    0.01    0.01</time>
   <time name="total">    4.41    4.41</time>
   <energy>
    <i name="e_fr_energy">   -115.95458094 </i>
    <i name="e_wo_entrp">   -115.95458094 </i>
    <i name="e_0_energy">   -115.95458094 </i>
   </energy>
  </scstep>
  <scstep>
   <time name="diag">    0.40    0.40</time>
   <time name="diis">    2.31    2.31</time>
   <time name="orth">    0.01    0.01</time>
   <time name="total">    4.51    4.52</time>
   <energy>
    <i name="e_fr_energy">   -115.95460948 </i>
    <i name="e_wo_entrp">   -115.95460948 </i>
    <i name="e_0_energy">   -115.95460948 </i>
   </energy>
  </scstep>
  <scstep>
   <time name="diag">    0.34    0.34</time>
   <time name="diis">    1.84    1.84</time>
   <time name="orth">    0.01    0.01</time>
   <time name="total">    3.90    3.90</time>
   <energy>
    <i name="e_fr_energy">   -115.95462150 </i>
    <i name="e_wo_entrp">   -115.95462150 </i>
    <i name="e_0_energy">   -115.95462150 </i>
   </energy>
  </scstep>
  <scstep>
   <time name="diag">    0.31    0.31</time>
   <time name="diis">    1.54    1.54</time>
   <time name="orth">    0.01    0.01</time>
   <time name="total">    3.30    3.30</time>
   <energy>
    <i name="alphaZ">      3.36120243 </i>
    <i name="ewald">   3127.35857045 </i>
    <i name="hartreedc">  -4575.99621840 </i>
    <i name="XCdc">    170.92796407 </i>
    <i name="pawpsdc">   4387.04124965 </i>
    <i name="pawaedc">  -4395.36292935 </i>
    <i name="eentropy">     -0.00000000 </i>
    <i name="bandstr">   -639.08132056 </i>
    <i name="atom">   1805.79685712 </i>
    <i name="e_fr_energy">   -115.95462460 </i>
    <i name="e_wo_entrp">   -115.95462460 </i>
    <i name="e_0_energy">   -115.95462460 </i>
   </energy>
  </scstep>
  <structure>
   <crystal>
    <varray name="basis" >
     <v>      15.00000000       0.00000000       0.00000000 </v>
     <v>       0.00000000      15.00000000       0.00000000 </v>
     <v>       0.00000000       0.00000000      15.00000000 </v>
    </varray>
    <i name="volume">   3375.00000000 </i>
    <varray name="rec_basis" >
     <v>       0.06666667       0.00000000       0.00000000 </v>
     <v>       0.00000000       0.06666667       0.00000000 </v>
     <v>       0.00000000       0.00000000       0.06666667 </v>
    </varray>
   </crystal>
   <varray name="positions" >
    <v>       0.37391516       0.54402411       0.58441665 </v>
    <v>       0.37032057       0.45528228       0.57750184 </v>
    <v>       0.45111886       0.39824106       0.56618808 </v>
    <v>       0.46178370       0.59134154       0.58783018 </v>
    <v>       0.52953145       0.54390059       0.52676958 </v>
    <v>       0.54101978       0.44900573       0.56524214 </v>
    <v>       0.61056120       0.59658590       0.52451170 </v>
    <v>       0.60332470       0.39245607       0.51754381 </v>
    <v>       0.30662556       0.42030807       0.57679647 </v>
    <v>       0.45550904       0.34623442       0.61758198 </v>
    <v>       0.44573013       0.36147920       0.50292673 </v>
    <v>       0.31330181       0.58388625       0.58778339 </v>
    <v>       0.49093905       0.58871902       0.65548740 </v>
    <v>       0.45535172       0.66225589       0.57198520 </v>
    <v>       0.50455671       0.53910722       0.45786590 </v>
    <v>       0.56608211       0.45658944       0.63370789 </v>
    <v>       0.66842402       0.64866076       0.52712732 </v>
    <v>       0.64342179       0.33818376       0.47863191 </v>
   </varray>
  </structure>
  <varray name="forces" >
   <v>      -0.01517983      -0.07375944       0.22665344 </v>
   <v>      -0.02790203       0.03925332      -0.02169720 </v>
   <v>      -0.01503942      -0.13991767      -0.05210548 </v>
   <v>      -0.02692894       0.08693530       0.01836732 </v>
   <v>      -0.00510656      -0.00556979      -0.05101115 </v>
   <v>       0.05325232      -0.02506807       0.07509230 </v>
   <v>       0.29589453       0.33656185       0.10199440 </v>
   <v>       0.20952821      -0.32937672      -0.28524758 </v>
   <v>      -0.12330453       0.00179200      -0.06733030 </v>
   <v>      -0.08464528      -0.07386170       0.11317078 </v>
   <v>      -0.12919077      -0.07562879      -0.08936479 </v>
   <v>      -0.09738585       0.00586791       0.10822851 </v>
   <v>      -0.15840936       0.13565827       0.05237814 </v>
   <v>       0.01903365       0.08604769      -0.21897826 </v>
   <v>      -0.14790082       0.00138940      -0.01577179 </v>
   <v>       0.02416001       0.03072130       0.12958047 </v>
   <v>       0.08784886      -0.20916089      -0.06300121 </v>
   <v>       0.14127582       0.20811605       0.03904239 </v>
  </varray>
  <varray name="stress" >
   <v>      -0.12598417       0.05577359      -0.24694692 </v>
   <v>       0.05577359      -0.67493395       0.07354509 </v>
   <v>      -0.24694692       0.07354509      -0.90339709 </v>
  </varray>
  <energy>
   <i name="e_fr_energy">   -116.19645554 </i>
   <i name="e_wo_entrp">   -116.19645554 </i>
   <i name="e_0_energy">   -116.19645554 </i>
  </energy>
  <time name="totalsc">   70.43   72.12</time>
 </calculation>
 <calculation>
  <scstep>
   <time name="dav">    3.00    3.01</time>
   <time name="total">    5.47    5.65</time>
   <energy>
    <i name="alphaZ">      3.36120243 </i>
    <i name="ewald">   3112.97152023 </i>
    <i name="hartreedc">  -4563.14443188 </i>
    <i name="XCdc">    170.79613168 </i>
    <i name="pawpsdc">   4386.14644118 </i>
    <i name="pawaedc">  -4394.46815357 </i>
    <i name="eentropy">     -0.00000000 </i>
    <i name="bandstr">   -637.43342097 </i>
    <i name="atom">   1805.79685712 </i>
    <i name="e_fr_energy">   -115.97385378 </i>
    <i name="e_wo_entrp">   -115.97385378 </i>
    <i name="e_0_energy">   -115.97385378 </i>
   </energy>
  </scstep>
  <scstep>
   <time name="diag">    0.37    0.37</time>
   <time name="diis">    3.31    3.58</time>
   <time name="orth">    0.02    0.03</time>
   <time name="total">    6.12    6.41</time>
   <energy>
    <i name="e_fr_energy">   -115.97486844 </i>
    <i name="e_wo_entrp">   -115.97486844 </i>
    <i name="e_0_energy">   -115.97486844 </i>
   </energy>
  </scstep>
  <scstep>
   <time name="diag">    0.56    0.56</time>
   <time name="diis">    3.26    3.60</time>
   <time name="orth">    0.01    0.03</time>
   <time name="total">    6.01    6.48</time>
   <energy>
    <i name="e_fr_energy">   -115.97509363 </i>
    <i name="e_wo_entrp">   -115.97509363 </i>
    <i name="e_0_energy">   -115.97509363 </i>
   </energy>
  </scstep>
  <scstep>
   <time name="diag">    0.45    0.45</time>
   <time name="diis">    3.31    3.32</time>
   <time name="orth">    0.02    0.04</time>
   <time name="total">    5.71    5.86</time>
   <energy>
    <i name="e_fr_energy">   -115.97531645 </i>
    <i name="e_wo_entrp">   -115.97531645 </i>
    <i name="e_0_energy">   -115.97531645 </i>
   </energy>
  </scstep>
  <scstep>
   <time name="diag">    0.46    0.46</time>
   <time name="diis">    4.17    4.47</time>
   <time name="orth">    0.03    0.03</time>
   <time name="total">    7.29    7.65</time>
   <energy>
    <i name="e_fr_energy">   -115.97536951 </i>
    <i name="e_wo_entrp">   -115.97536951 </i>
    <i name="e_0_energy">   -115.97536951 </i>
   </energy>
  </scstep>
  <scstep>
   <time name="diag">    0.92    0.95</time>
   <time name="diis">    3.96    4.36</time>
   <time name="orth">    0.03    0.06</time>
   <time name="total">    8.15    8.87</time>
   <energy>
    <i name="e_fr_energy">   -115.97538427 </i>
    <i name="e_wo_entrp">   -115.97538427 </i>
    <i name="e_0_energy">   -115.97538427 </i>
   </energy>
  </scstep>
  <scstep>
   <time name="diag">    0.40    0.40</time>
   <time name="diis">    1.93    1.93</time>
   <time name="orth">    0.02    0.02</time>
   <time name="total">    4.34    4.41</time>
   <energy>
    <i name="e_fr_energy">   -115.97539604 </i>
    <i name="e_wo_entrp">   -115.97539604 </i>
    <i name="e_0_energy">   -115.97539604 </i>
   </energy>
  </scstep>
  <scstep>
   <time name="diag">    0.46    0.46</time>
   <time name="diis">    1.96    1.97</time>
   <time name="orth">    0.01    0.01</time>
   <time name="total">    4.14    4.14</time>
   <energy>
    <i name="alphaZ">      3.36120243 </i>
    <i name="ewald">   3112.97152023 </i>
    <i name="hartreedc">  -4562.25570800 </i>
    <i name="XCdc">    170.77064717 </i>
    <i name="pawpsdc">   4362.89664383 </i>
    <i name="pawaedc">  -4371.20967568 </i>
    <i name="eentropy">     -0.00000000 </i>
    <i name="bandstr">   -638.30688857 </i>
    <i name="atom">   1805.79685712 </i>
    <i name="e_fr_energy">   -115.97540148 </i>
    <i name="e_wo_entrp">   -115.97540148 </i>
    <i name="e_0_energy">   -115.97540148 </i>
   </energy>
  </scstep>
  <structure>
   <crystal>
    <varray name="basis" >
     <v>      15.00000000       0.00000000       0.00000000 </v>
     <v>       0.00000000      15.00000000       0.00000000 </v>
     <v>       0.00000000       0.00000000      15.00000000 </v>
    </varray>
    <i name="volume">   3375.00000000 </i>
    <varray name="rec_basis" >
     <v>       0.06666667       0.00000000       0.00000000 </v>
     <v>       0.00000000       0.06666667       0.00000000 </v>
     <v>       0.00000000       0.00000000       0.06666667 </v>
    </varray>
   </crystal>
   <varray name="positions" >
    <v>       0.37371801       0.54384465       0.58528366 </v>
    <v>       0.37011479       0.45527865       0.57734449 </v>
    <v>       0.45097737       0.39784880       0.56615911 </v>
    <v>       0.46169361       0.59158340       0.58780472 </v>
    <v>       0.52977029       0.54397358       0.52654029 </v>
    <v>       0.54146984       0.44883803       0.56533917 </v>
    <v>       0.61085624       0.59713169       0.52486543 </v>
    <v>       0.60338777       0.39200780       0.51692906 </v>
    <v>       0.30631005       0.42035279       0.57657465 </v>
    <v>       0.45529121       0.34601205       0.61814118 </v>
    <v>       0.44528673       0.36110558       0.50260415 </v>
    <v>       0.31304700       0.58389350       0.58805889 </v>
    <v>       0.49046905       0.58905467       0.65577274 </v>
    <v>       0.45543098       0.66266463       0.57131206 </v>
    <v>       0.50395686       0.53911209       0.45767898 </v>
    <v>       0.56621559       0.45671537       0.63419769 </v>
    <v>       0.66921461       0.64846811       0.52689399 </v>
    <v>       0.64415834       0.33829214       0.47826599 </v>
   </varray>
  </structure>
  <varray name="forces" >
   <v>       0.04259184       0.11707458       0.05215217 </v>
   <v>       0.02480543      -0.10093899       0.04155695 </v>
   <v>       0.03803654      -0.07797909      -0.04743655 </v>
   <v>      -0.01797602       0.04715523       0.04366119 </v>
   <v>      -0.08336134       0.01886483       0.06915811 </v>
   <v>      -0.08479483      -0.06193602       0.01026257 </v>
   <v>       0.00852824       0.03869049      -0.01018575 </v>
   <v>       0.05362365      -0.01837354       0.01214920 </v>
   <v>      -0.09041150       0.01455368      -0.06877950 </v>
   <v>      -0.09270298       0.01018312      -0.01160570 </v>
   <v>      -0.08239622      -0.02972475       0.04193596 </v>
   <v>      -0.05281411      -0.03684707       0.13776082 </v>
   <v>      -0.12448550       0.16638558      -0.02867922 </v>
   <v>      -0.00630990      -0.05632993      -0.15746254 </v>
   <v>      -0.02975004       0.02166641       0.08707212 </v>
   <v>       0.01721478      -0.02407340      -0.03343420 </v>
   <v>       0.23503425      -0.04192848      -0.02496660 </v>
   <v>       0.24516770       0.01355736      -0.11315903 </v>
  </varray>
  <varray name="stress" >
   <v>      -0.47742043       0.00507476      -0.26600610 </v>
   <v>       0.00507476      -0.95617055       0.10644047 </v>
   <v>      -0.26600610       0.10644048      -1.24012856 </v>
  </varray>
  <energy>
   <i name="e_fr_energy">   -116.21721798 </i>
   <i name="e_wo_entrp">   -116.21721798 </i>
   <i name="e_0_energy">   -116.21721798 </i>
  </energy>
  <time name="totalsc">   76.04   78.89</time>
 </calculation>
 <calculation>
  <scstep>
   <time name="dav">    5.19    5.47</time>
   <time name="total">    7.43    7.73</time>
   <energy>
    <i name="alphaZ">      3.36120243 </i>
    <i name="ewald">   3113.59291212 </i>
    <i name="hartreedc">  -4562.83310519 </i>
    <i name="XCdc">    170.77770352 </i>
    <i name="pawpsdc">   4362.77960723 </i>
    <i name="pawaedc">  -4371.09264106 </i>
    <i name="eentropy">     -0.00000000 </i>
    <i name="bandstr">   -638.35874020 </i>
    <i name="atom">   1805.79685712 </i>
    <i name="e_fr_energy">   -115.97620403 </i>
    <i name="e_wo_entrp">   -115.97620403 </i>
    <i name="e_0_energy">   -115.97620403 </i>
   </energy>
  </scstep>
  <scstep>
   <time name="diag">    0.63    0.69</time>
   <time name="diis">    3.37    3.64</time>
   <time name="orth">    0.02    0.03</time>
   <time name="total">    6.25    6.78</time>
   <energy>
    <i name="e_fr_energy">   -115.97621924 </i>
    <i name="e_wo_entrp">   -115.97621924 </i>
    <i name="e_0_energy">   -115.97621924 </i>
   </energy>
  </scstep>
  <scstep>
   <time name="diag">    0.42    0.42</time>
   <time name="diis">    3.39    3.43</time>
   <time name="orth">    0.01    0.03</time>
   <time name="total">    5.59    5.65</time>
   <energy>
    <i name="alphaZ">      3.36120243 </i>
    <i name="ewald">   3113.59291212 </i>
    <i name="hartreedc">  -4562.84143598 </i>
    <i name="XCdc">    170.77704783 </i>
    <i name="pawpsdc">   4362.80622130 </i>
    <i name="pawaedc">  -4371.11887172 </i>
    <i name="eentropy">     -0.00000000 </i>
    <i name="bandstr">   -638.35015234 </i>
    <i name="atom">   1805.79685712 </i>
    <i name="e_fr_energy">   -115.97621923 </i>
    <i name="e_wo_entrp">   -115.97621923 </i>
    <i name="e_0_energy">   -115.97621923 </i>
   </energy>
  </scstep>
  <structure>
   <crystal>
    <varray name="basis" >
     <v>      15.00000000       0.00000000       0.00000000 </v>
     <v>       0.00000000      15.00000000       0.00000000 </v>
     <v>       0.00000000       0.00000000      15.00000000 </v>
    </varray>
    <i name="volume">   3375.00000000 </i>
    <varray name="rec_basis" >
     <v>       0.06666667       0.00000000       0.00000000 </v>
     <v>       0.00000000       0.06666667       0.00000000 </v>
     <v>       0.00000000       0.00000000       0.06666667 </v>
    </varray>
   </crystal>
   <varray name="positions" >
    <v>       0.37376119       0.54390024       0.58521603 </v>
    <v>       0.37015038       0.45525063       0.57737918 </v>
    <v>       0.45101016       0.39785208       0.56612537 </v>
    <v>       0.46169542       0.59158365       0.58782526 </v>
    <v>       0.52970976       0.54397047       0.52659396 </v>
    <v>       0.54138479       0.44883398       0.56534824 </v>
    <v>       0.61084583       0.59710473       0.52483312 </v>
    <v>       0.60342914       0.39203438       0.51701135 </v>
    <v>       0.30630071       0.42035241       0.57657516 </v>
    <v>       0.45526829       0.34601639       0.61805189 </v>
    <v>       0.44530048       0.36115276       0.50262559 </v>
    <v>       0.31304708       0.58387922       0.58809332 </v>
    <v>       0.49046126       0.58910072       0.65572797 </v>
    <v>       0.45541846       0.66260029       0.57130486 </v>
    <v>       0.50401533       0.53911598       0.45773799 </v>
    <v>       0.56619490       0.45669622       0.63415050 </v>
    <v>       0.66922400       0.64846650       0.52691742 </v>
    <v>       0.64420484       0.33829704       0.47829657 </v>
   </varray>
  </structure>
  <varray name="forces" >
   <v>       0.01699070       0.04108264       0.06831355 </v>
   <v>       0.01157798      -0.04245000       0.03200899 </v>
   <v>       0.01434396      -0.06705341      -0.02913354 </v>
   <v>      -0.02213462       0.04647654       0.01975029 </v>
   <v>      -0.04687715       0.02325408       0.06036376 </v>
   <v>      -0.04369404      -0.06261433       0.00386412 </v>
   <v>       0.04236173       0.07065660       0.00700352 </v>
   <v>       0.07832765      -0.06628745      -0.03353676 </v>
   <v>      -0.07769772       0.01919981      -0.06605126 </v>
   <v>      -0.08760190      -0.00366119       0.00329064 </v>
   <v>      -0.08462860      -0.04246767       0.01463769 </v>
   <v>      -0.05009451      -0.03332455       0.13362110 </v>
   <v>      -0.11762867       0.16282921      -0.00172541 </v>
   <v>      -0.00553891      -0.03031646      -0.16275364 </v>
   <v>      -0.04785900       0.02000272       0.06958971 </v>
   <v>       0.01341429      -0.02020183      -0.01432866 </v>
   <v>       0.19585541      -0.07656550      -0.02950826 </v>
   <v>       0.21088340       0.06144078      -0.07540584 </v>
  </varray>
  <varray name="stress" >
   <v>      -0.47433144       0.00779853      -0.24723788 </v>
   <v>       0.00779853      -0.98852648       0.08938597 </v>
   <v>      -0.24723788       0.08938597      -1.19329223 </v>
  </varray>
  <energy>
   <i name="e_fr_energy">   -116.21801134 </i>
   <i name="e_wo_entrp">   -116.21801134 </i>
   <i name="e_0_energy">   -116.21801134 </i>
  </energy>
  <time name="totalsc">   37.05   38.23</time>
 </calculation>
 <calculation>
  <scstep>
   <time name="dav">    3.06    3.06</time>
   <time name="total">    4.92    4.94</time>
   <energy>
    <i name="alphaZ">      3.36120243 </i>
    <i name="ewald">   3112.13947842 </i>
    <i name="hartreedc">  -4561.38688753 </i>
    <i name="XCdc">    170.77192795 </i>
    <i name="pawpsdc">   4362.65817549 </i>
    <i name="pawaedc">  -4370.97073365 </i>
    <i name="eentropy">     -0.00000000 </i>
    <i name="bandstr">   -638.35015785 </i>
    <i name="atom">   1805.79685712 </i>
    <i name="e_fr_energy">   -115.98013763 </i>
    <i name="e_wo_entrp">   -115.98013763 </i>
    <i name="e_0_energy">   -115.98013763 </i>
   </energy>
  </scstep>
  <scstep>
   <time name="diag">    0.34    0.34</time>
   <time name="diis">    2.02    2.02</time>
   <time name="orth">    0.01    0.01</time>
   <time name="total">    4.22    4.23</time>
   <energy>
    <i name="e_fr_energy">   -115.98024984 </i>
    <i name="e_wo_entrp">   -115.98024984 </i>
    <i name="e_0_energy">   -115.98024984 </i>
   </energy>
  </scstep>
  <scstep>
   <time name="diag">    0.34    0.34</time>
   <time name="diis">    2.01    2.01</time>
   <time name="orth">    0.01    0.01</time>
   <time name="total">    4.09    4.09</time>
   <energy>
    <i name="e_fr_energy">   -115.98028992 </i>
    <i name="e_wo_entrp">   -115.98028992 </i>
    <i name="e_0_energy">   -115.98028992 </i>
   </energy>
  </scstep>
  <scstep>
   <time name="diag">    0.36    0.36</time>
   <time name="diis">    2.11    2.11</time>
   <time name="orth">    0.01    0.01</time>
   <time name="total">    4.17    4.17</time>
   <energy>
    <i name="e_fr_energy">   -115.98030862 </i>
    <i name="e_wo_entrp">   -115.98030862 </i>
    <i name="e_0_energy">   -115.98030862 </i>
   </energy>
  </scstep>
  <scstep>
   <time name="diag">    0.36    0.36</time>
   <time name="diis">    1.22    1.22</time>
   <time name="orth">    0.01    0.01</time>
   <time name="total">    3.47    3.48</time>
   <energy>
    <i name="alphaZ">      3.36120243 </i>
    <i name="ewald">   3112.13947842 </i>
    <i name="hartreedc">  -4561.42160529 </i>
    <i name="XCdc">    170.77666452 </i>
    <i name="pawpsdc">   4363.37781436 </i>
    <i name="pawaedc">  -4371.69180490 </i>
    <i name="eentropy">     -0.00000000 </i>
    <i name="bandstr">   -638.31892004 </i>
    <i name="atom">   1805.79685712 </i>
    <i name="e_fr_energy">   -115.98031339 </i>
    <i name="e_wo_entrp">   -115.98031339 </i>
    <i name="e_0_energy">   -115.98031339 </i>
   </energy>
  </scstep>
  <structure>
   <crystal>
    <varray name="basis" >
     <v>      15.00000000       0.00000000       0.00000000 </v>
     <v>       0.00000000      15.00000000       0.00000000 </v>
     <v>       0.00000000       0.00000000      15.00000000 </v>
    </varray>
    <i name="volume">   3375.00000000 </i>
    <varray name="rec_basis" >
     <v>       0.06666667       0.00000000       0.00000000 </v>
     <v>       0.00000000       0.06666667       0.00000000 </v>
     <v>       0.00000000       0.00000000       0.06666667 </v>
    </varray>
   </crystal>
   <varray name="positions" >
    <v>       0.37377514       0.54388913       0.58528647 </v>
    <v>       0.37016546       0.45525588       0.57741480 </v>
    <v>       0.45101687       0.39778489       0.56607102 </v>
    <v>       0.46166865       0.59164138       0.58782886 </v>
    <v>       0.52967814       0.54399522       0.52666960 </v>
    <v>       0.54134898       0.44877024       0.56537302 </v>
    <v>       0.61092469       0.59720477       0.52486207 </v>
    <v>       0.60357463       0.39193188       0.51700407 </v>
    <v>       0.30622179       0.42037565       0.57651962 </v>
    <v>       0.45516010       0.34595729       0.61799204 </v>
    <v>       0.44521653       0.36114929       0.50256444 </v>
    <v>       0.31299182       0.58384358       0.58825151 </v>
    <v>       0.49033195       0.58930511       0.65573175 </v>
    <v>       0.45540617       0.66257634       0.57110380 </v>
    <v>       0.50398161       0.53912778       0.45781788 </v>
    <v>       0.56617326       0.45668065       0.63417375 </v>
    <v>       0.66940746       0.64836489       0.52690822 </v>
    <v>       0.64446765       0.33840373       0.47831955 </v>
   </varray>
  </structure>
  <varray name="forces" >
   <v>      -0.00961858       0.06127278       0.06802684 </v>
   <v>      -0.01516597      -0.07379217       0.02034490 </v>
   <v>      -0.00891071      -0.04274852      -0.01799797 </v>
   <v>      -0.02478516       0.02719086       0.00921674 </v>
   <v>       0.00486246       0.02937314       0.05161470 </v>
   <v>       0.00968671      -0.07305466      -0.02528361 </v>
   <v>      -0.07159923      -0.03796522       0.00694542 </v>
   <v>      -0.05221939       0.09923913       0.08104427 </v>
   <v>      -0.04305133       0.03484344      -0.06058226 </v>
   <v>      -0.08084700      -0.01142196       0.00618477 </v>
   <v>      -0.07930418      -0.04624270       0.00673884 </v>
   <v>      -0.02889353      -0.04547215       0.13126989 </v>
   <v>      -0.10308679       0.16283310       0.01496318 </v>
   <v>      -0.01217038      -0.01255001      -0.16067237 </v>
   <v>      -0.04410831       0.02329047       0.06695853 </v>
   <v>       0.01078502      -0.02828592      -0.01703532 </v>
   <v>       0.25672327      -0.01411576      -0.02778114 </v>
   <v>       0.29170310      -0.05239384      -0.15395541 </v>
  </varray>
  <varray name="stress" >
   <v>      -0.49373879      -0.00474574      -0.24767599 </v>
   <v>      -0.00474574      -0.97745963       0.10615511 </v>
   <v>      -0.24767599       0.10615511      -1.16874728 </v>
  </varray>
  <energy>
   <i name="e_fr_energy">   -116.22208572 </i>
   <i name="e_wo_entrp">   -116.22208572 </i>
   <i name="e_0_energy">   -116.22208572 </i>
  </energy>
  <time name="totalsc">   43.77   44.65</time>
 </calculation>
 <calculation>
  <scstep>
   <time name="dav">    4.42    4.69</time>
   <time name="total">    7.80    8.48</time>
   <energy>
    <i name="alphaZ">      3.36120243 </i>
    <i name="ewald">   3107.76509835 </i>
    <i name="hartreedc">  -4557.66028366 </i>
    <i name="XCdc">    170.73896860 </i>
    <i name="pawpsdc">   4363.08516372 </i>
    <i name="pawaedc">  -4371.39911043 </i>
    <i name="eentropy">     -0.00000000 </i>
    <i name="bandstr">   -637.67489392 </i>
    <i name="atom">   1805.79685712 </i>
    <i name="e_fr_energy">   -115.98699778 </i>
    <i name="e_wo_entrp">   -115.98699778 </i>
    <i name="e_0_energy">   -115.98699778 </i>
   </energy>
  </scstep>
  <scstep>
   <time name="diag">    0.59    0.59</time>
   <time name="diis">    3.31    3.31</time>
   <time name="orth">    0.02    0.03</time>
   <time name="total">    6.71    6.87</time>
   <energy>
    <i name="e_fr_energy">   -115.98747509 </i>
    <i name="e_wo_entrp">   -115.98747509 </i>
    <i name="e_0_energy">   -115.98747509 </i>
   </energy>
  </scstep>
  <scstep>
   <time name="diag">    0.41    0.41</time>
   <time name="diis">    2.41    2.41</time>
   <time name="orth">    0.01    0.01</time>
   <time name="total">    4.98    5.18</time>
   <energy>
    <i name="e_fr_energy">   -115.98758746 </i>
    <i name="e_wo_entrp">   -115.98758746 </i>
    <i name="e_0_energy">   -115.98758746 </i>
   </energy>
  </scstep>
  <scstep>
   <time name="diag">    0.38    0.38</time>
   <time name="diis">    2.23    2.23</time>
   <time name="orth">    0.01    0.01</time>
   <time name="total">    4.40    4.41</time>
   <energy>
    <i name="e_fr_energy">   -115.98763999 </i>
    <i name="e_wo_entrp">   -115.98763999 </i>
    <i name="e_0_energy">   -115.98763999 </i>
   </energy>
  </scstep>
  <scstep>
   <time name="diag">    0.41    0.41</time>
   <time name="diis">    1.78    1.78</time>
   <time name="orth">    0.01    0.01</time>
   <time name="total">    4.02    4.02</time>
   <energy>
    <i name="e_fr_energy">   -115.98765788 </i>
    <i name="e_wo_entrp">   -115.98765788 </i>
    <i name="e_0_energy">   -115.98765788 </i>
   </energy>
  </scstep>
  <scstep>
   <time name="diag">    0.29    0.29</time>
   <time name="diis">    1.07    1.07</time>
   <time name="orth">    0.00    0.00</time>
   <time name="total">    2.74    2.74</time>
   <energy>
    <i name="alphaZ">      3.36120243 </i>
    <i name="ewald">   3107.76509835 </i>
    <i name="hartreedc">  -4557.21916581 </i>
    <i name="XCdc">    170.72015534 </i>
    <i name="pawpsdc">   4351.77737650 </i>
    <i name="pawaedc">  -4360.08395736 </i>
    <i name="eentropy">     -0.00000000 </i>
    <i name="bandstr">   -638.10523120 </i>
    <i name="atom">   1805.79685712 </i>
    <i name="e_fr_energy">   -115.98766462 </i>
    <i name="e_wo_entrp">   -115.98766462 </i>
    <i name="e_0_energy">   -115.98766462 </i>
   </energy>
  </scstep>
  <structure>
   <crystal>
    <varray name="basis" >
     <v>      15.00000000       0.00000000       0.00000000 </v>
     <v>       0.00000000      15.00000000       0.00000000 </v>
     <v>       0.00000000       0.00000000      15.00000000 </v>
    </varray>
    <i name="volume">   3375.00000000 </i>
    <varray name="rec_basis" >
     <v>       0.06666667       0.00000000       0.00000000 </v>
     <v>       0.00000000       0.06666667       0.00000000 </v>
     <v>       0.00000000       0.00000000       0.06666667 </v>
    </varray>
   </crystal>
   <varray name="positions" >
    <v>       0.37376503       0.54387295       0.58545797 </v>
    <v>       0.37015685       0.45524173       0.57745598 </v>
    <v>       0.45100062       0.39766726       0.56598734 </v>
    <v>       0.46161589       0.59173794       0.58782470 </v>
    <v>       0.52968163       0.54404667       0.52677586 </v>
    <v>       0.54135969       0.44864372       0.56539640 </v>
    <v>       0.61098084       0.59731673       0.52493211 </v>
    <v>       0.60371618       0.39186709       0.51704689 </v>
    <v>       0.30609721       0.42043001       0.57641635 </v>
    <v>       0.45497024       0.34583888       0.61792905 </v>
    <v>       0.44505185       0.36111631       0.50243672 </v>
    <v>       0.31289995       0.58377441       0.58853319 </v>
    <v>       0.49009711       0.58966984       0.65576939 </v>
    <v>       0.45538509       0.66257524       0.57072571 </v>
    <v>       0.50389049       0.53915090       0.45793888 </v>
    <v>       0.56614332       0.45665543       0.63423985 </v>
    <v>       0.66981658       0.64823395       0.52687939 </v>
    <v>       0.64502112       0.33849665       0.47826958 </v>
   </varray>
  </structure>
  <varray name="forces" >
   <v>      -0.02524376       0.06886775       0.05099224 </v>
   <v>      -0.02866442      -0.08693821       0.01030986 </v>
   <v>      -0.03395537      -0.01570096      -0.00927899 </v>
   <v>      -0.02915571       0.00715271       0.00277809 </v>
   <v>       0.01721908       0.01205613       0.04463394 </v>
   <v>       0.01457827      -0.04500550      -0.02261534 </v>
   <v>       0.04248046       0.03546865       0.00880706 </v>
   <v>       0.08253136      -0.05827411      -0.04288147 </v>
   <v>      -0.00940091       0.04582426      -0.05197552 </v>
   <v>      -0.07155566      -0.01190811      -0.00071922 </v>
   <v>      -0.06818901      -0.04406734       0.01166870 </v>
   <v>      -0.00993820      -0.05447483       0.13043320 </v>
   <v>      -0.08365639       0.16466132       0.02593750 </v>
   <v>      -0.02357620      -0.00618948      -0.15143411 </v>
   <v>      -0.03164056       0.02809972       0.07254733 </v>
   <v>       0.00361981      -0.04211899      -0.03061786 </v>
   <v>       0.11184699      -0.12556535      -0.03042730 </v>
   <v>       0.14270022       0.12811235      -0.01815809 </v>
  </varray>
  <varray name="stress" >
   <v>      -0.67230591      -0.01774436      -0.19865071 </v>
   <v>      -0.01774436      -1.17178622       0.04917913 </v>
   <v>      -0.19865071       0.04917913      -1.21940574 </v>
  </varray>
  <energy>
   <i name="e_fr_energy">   -116.22934601 </i>
   <i name="e_wo_entrp">   -116.22934601 </i>
   <i name="e_0_energy">   -116.22934601 </i>
  </energy>
  <time name="totalsc">   55.24   56.37</time>
 </calculation>
 <calculation>
  <scstep>
   <time name="dav">    3.67    4.12</time>
   <time name="total">    6.13    6.73</time>
   <energy>
    <i name="alphaZ">      3.36120243 </i>
    <i name="ewald">   3108.36369458 </i>
    <i name="hartreedc">  -4557.55038814 </i>
    <i name="XCdc">    170.73605744 </i>
    <i name="pawpsdc">   4351.59099404 </i>
    <i name="pawaedc">  -4359.89755227 </i>
    <i name="eentropy">     -0.00000000 </i>
    <i name="bandstr">   -638.39145594 </i>
    <i name="atom">   1805.79685712 </i>
    <i name="e_fr_energy">   -115.99059074 </i>
    <i name="e_wo_entrp">   -115.99059074 </i>
    <i name="e_0_energy">   -115.99059074 </i>
   </energy>
  </scstep>
  <scstep>
   <time name="diag">    0.81    0.81</time>
   <time name="diis">    4.73    4.73</time>
   <time name="orth">    0.03    0.03</time>
   <time name="total">    9.03    9.10</time>
   <energy>
    <i name="e_fr_energy">   -115.99074891 </i>
    <i name="e_wo_entrp">   -115.99074891 </i>
    <i name="e_0_energy">   -115.99074891 </i>
   </energy>
  </scstep>
  <scstep>
   <time name="diag">    0.90    0.90</time>
   <time name="diis">    4.20    4.20</time>
   <time name="orth">    0.02    0.02</time>
   <time name="total">    8.32    8.33</time>
   <energy>
    <i name="e_fr_energy">   -115.99079442 </i>
    <i name="e_wo_entrp">   -115.99079442 </i>
    <i name="e_0_energy">   -115.99079442 </i>
   </energy>
  </scstep>
  <scstep>
   <time name="diag">    0.38    0.38</time>
   <time name="diis">    1.73    1.73</time>
   <time name="orth">    0.01    0.01</time>
   <time name="total">    4.12    4.12</time>
   <energy>
    <i name="e_fr_energy">   -115.99081159 </i>
    <i name="e_wo_entrp">   -115.99081159 </i>
    <i name="e_0_energy">   -115.99081159 </i>
   </energy>
  </scstep>
  <scstep>
   <time name="diag">    0.33    0.33</time>
   <time name="diis">    1.18    1.18</time>
   <time name="orth">    0.01    0.01</time>
   <time name="total">    3.10    3.10</time>
   <energy>
    <i name="alphaZ">      3.36120243 </i>
    <i name="ewald">   3108.36369458 </i>
    <i name="hartreedc">  -4557.73620528 </i>
    <i name="XCdc">    170.74588137 </i>
    <i name="pawpsdc">   4355.46891875 </i>
    <i name="pawaedc">  -4363.77861823 </i>
    <i name="eentropy">     -0.00000000 </i>
    <i name="bandstr">   -638.21254686 </i>
    <i name="atom">   1805.79685712 </i>
    <i name="e_fr_energy">   -115.99081612 </i>
    <i name="e_wo_entrp">   -115.99081612 </i>
    <i name="e_0_energy">   -115.99081612 </i>
   </energy>
  </scstep>
  <structure>
   <crystal>
    <varray name="basis" >
     <v>      15.00000000       0.00000000       0.00000000 </v>
     <v>       0.00000000      15.00000000       0.00000000 </v>
     <v>       0.00000000       0.00000000      15.00000000 </v>
    </varray>
    <i name="volume">   3375.00000000 </i>
    <varray name="rec_basis" >
     <v>       0.06666667       0.00000000       0.00000000 </v>
[...]
   <v>       0.00243883      -0.00113224       0.01228086 </v>
   <v>       0.00043175      -0.00124123       0.01250473 </v>
   <v>      -0.00392064      -0.00077623      -0.01410906 </v>
   <v>      -0.00188025       0.00367328      -0.00909038 </v>
   <v>      -0.00061482      -0.00244553      -0.00269452 </v>
   <v>      -0.00386541      -0.00063053       0.00246180 </v>
   <v>       0.00396897      -0.00380295      -0.00025599 </v>
   <v>       0.01085697      -0.00089484       0.01057599 </v>
   <v>       0.00083290      -0.00064129       0.02982376 </v>
   <v>      -0.00437625      -0.02397783      -0.03297771 </v>
   <v>      -0.00860909       0.02295809      -0.03101750 </v>
   <v>       0.00483003      -0.00285969       0.03031393 </v>
   <v>       0.00185483       0.02371080      -0.01365686 </v>
   <v>      -0.01060968      -0.00408923      -0.02521359 </v>
   <v>       0.00360536      -0.00587724      -0.00357563 </v>
   <v>      -0.01610045       0.00110837       0.00909403 </v>
   <v>       0.00249189      -0.00956877       0.00401071 </v>
   <v>       0.01866507       0.00648705       0.02152543 </v>
  </varray>
  <varray name="stress" >
   <v>      -1.19129063      -0.00737475      -0.02210558 </v>
   <v>      -0.00737475      -1.17497482       0.01255014 </v>
   <v>      -0.02210558       0.01255014      -1.20370715 </v>
  </varray>
  <energy>
   <i name="e_fr_energy">   -116.34730678 </i>
   <i name="e_wo_entrp">   -116.34730678 </i>
   <i name="e_0_energy">   -116.34730678 </i>
  </energy>
  <time name="totalsc">   31.87   33.49</time>
 </calculation>
 <calculation>
  <scstep>
   <time name="dav">    2.99    3.01</time>
   <time name="total">    5.27    5.41</time>
   <energy>
    <i name="alphaZ">      3.36120243 </i>
    <i name="ewald">   3105.23198721 </i>
    <i name="hartreedc">  -4555.65132601 </i>
    <i name="XCdc">    170.66350651 </i>
    <i name="pawpsdc">   4345.31278446 </i>
    <i name="pawaedc">  -4353.61513528 </i>
    <i name="eentropy">     -0.00000000 </i>
    <i name="bandstr">   -637.20551138 </i>
    <i name="atom">   1805.79685712 </i>
    <i name="e_fr_energy">   -116.10563494 </i>
    <i name="e_wo_entrp">   -116.10563494 </i>
    <i name="e_0_energy">   -116.10563494 </i>
   </energy>
  </scstep>
  <scstep>
   <time name="diag">    0.65    0.85</time>
   <time name="diis">    1.88    2.17</time>
   <time name="orth">    0.01    0.01</time>
   <time name="total">    5.22    5.89</time>
   <energy>
    <i name="alphaZ">      3.36120243 </i>
    <i name="ewald">   3105.23198721 </i>
    <i name="hartreedc">  -4555.65559848 </i>
    <i name="XCdc">    170.66374519 </i>
    <i name="pawpsdc">   4345.32986005 </i>
    <i name="pawaedc">  -4353.63226695 </i>
    <i name="eentropy">     -0.00000000 </i>
    <i name="bandstr">   -637.20142184 </i>
    <i name="atom">   1805.79685712 </i>
    <i name="e_fr_energy">   -116.10563528 </i>
    <i name="e_wo_entrp">   -116.10563528 </i>
    <i name="e_0_energy">   -116.10563528 </i>
   </energy>
  </scstep>
  <structure>
   <crystal>
    <varray name="basis" >
     <v>      15.00000000       0.00000000       0.00000000 </v>
     <v>       0.00000000      15.00000000       0.00000000 </v>
     <v>       0.00000000       0.00000000      15.00000000 </v>
    </varray>
    <i name="volume">   3375.00000000 </i>
    <varray name="rec_basis" >
     <v>       0.06666667       0.00000000       0.00000000 </v>
     <v>       0.00000000       0.06666667       0.00000000 </v>
     <v>       0.00000000       0.00000000       0.06666667 </v>
    </varray>
   </crystal>
   <varray name="positions" >
    <v>       0.37351680       0.54332321       0.59092293 </v>
    <v>       0.36935024       0.45476808       0.58135377 </v>
    <v>       0.44870613       0.39579470       0.56669119 </v>
    <v>       0.45969338       0.59394345       0.58544606 </v>
    <v>       0.52775822       0.54306344       0.52744955 </v>
    <v>       0.53916959       0.44619746       0.56336559 </v>
    <v>       0.61271960       0.59053093       0.52453736 </v>
    <v>       0.60261729       0.39551915       0.50955664 </v>
    <v>       0.30475279       0.42105707       0.58351598 </v>
    <v>       0.45258882       0.34571884       0.62042081 </v>
    <v>       0.43961979       0.35702626       0.50488647 </v>
    <v>       0.31250526       0.58162108       0.60173101 </v>
    <v>       0.48822474       0.60475003       0.65250517 </v>
    <v>       0.44912576       0.66075555       0.55713270 </v>
    <v>       0.50166526       0.53915088       0.45874335 </v>
    <v>       0.56680936       0.45163011       0.63132096 </v>
    <v>       0.67950978       0.63044453       0.52436290 </v>
    <v>       0.65006043       0.35358683       0.46433574 </v>
   </varray>
  </structure>
  <varray name="forces" >
   <v>       0.00317996      -0.00087853       0.01118605 </v>
   <v>       0.00057072      -0.00034685       0.01130135 </v>
   <v>      -0.00439652      -0.00111849      -0.01412109 </v>
   <v>      -0.00078620       0.00372652      -0.00912385 </v>
   <v>      -0.00026212      -0.00192469      -0.00254495 </v>
   <v>      -0.00382364      -0.00125039       0.00210635 </v>
   <v>      -0.00224201      -0.00692919       0.00027494 </v>
   <v>       0.00676207       0.00255049       0.01514574 </v>
   <v>       0.00106784      -0.00033912       0.03090821 </v>
   <v>      -0.00386909      -0.02420024      -0.03302642 </v>
   <v>      -0.00877096       0.02344083      -0.03102920 </v>
   <v>       0.00513674      -0.00260285       0.03104073 </v>
   <v>       0.00244577       0.02439805      -0.01382879 </v>
   <v>      -0.01057743      -0.00390626      -0.02542181 </v>
   <v>       0.00384881      -0.00578836      -0.00343592 </v>
   <v>      -0.01601727       0.00114906       0.00919300 </v>
   <v>       0.00490040      -0.00967753       0.00431843 </v>
   <v>       0.02283293       0.00369756       0.01705720 </v>
  </varray>
  <varray name="stress" >
   <v>      -1.18823965      -0.00750326      -0.02389782 </v>
   <v>      -0.00750326      -1.17288934       0.01321753 </v>
   <v>      -0.02389782       0.01321753      -1.20121978 </v>
  </varray>
  <energy>
   <i name="e_fr_energy">   -116.34733552 </i>
   <i name="e_wo_entrp">   -116.34733552 </i>
   <i name="e_0_energy">   -116.34733552 </i>
  </energy>
  <time name="totalsc">   22.25   23.56</time>
 </calculation>
 <calculation>
  <scstep>
   <time name="dav">    2.73    2.73</time>
   <time name="total">    4.90    4.98</time>
   <energy>
    <i name="alphaZ">      3.36120243 </i>
    <i name="ewald">   3105.23221696 </i>
    <i name="hartreedc">  -4555.66418227 </i>
    <i name="XCdc">    170.66374314 </i>
    <i name="pawpsdc">   4345.36386661 </i>
    <i name="pawaedc">  -4353.66633472 </i>
    <i name="eentropy">     -0.00000000 </i>
    <i name="bandstr">   -637.19305226 </i>
    <i name="atom">   1805.79685712 </i>
    <i name="e_fr_energy">   -116.10568299 </i>
    <i name="e_wo_entrp">   -116.10568299 </i>
    <i name="e_0_energy">   -116.10568299 </i>
   </energy>
  </scstep>
  <scstep>
   <time name="diag">    0.89    1.04</time>
   <time name="diis">    1.99    2.03</time>
   <time name="orth">    0.01    0.01</time>
   <time name="total">    5.33    5.55</time>
   <energy>
    <i name="alphaZ">      3.36120243 </i>
    <i name="ewald">   3105.23221696 </i>
    <i name="hartreedc">  -4555.66272555 </i>
    <i name="XCdc">    170.66362100 </i>
    <i name="pawpsdc">   4345.36161750 </i>
    <i name="pawaedc">  -4353.66405052 </i>
    <i name="eentropy">     -0.00000000 </i>
    <i name="bandstr">   -637.19442225 </i>
    <i name="atom">   1805.79685712 </i>
    <i name="e_fr_energy">   -116.10568330 </i>
    <i name="e_wo_entrp">   -116.10568330 </i>
    <i name="e_0_energy">   -116.10568330 </i>
   </energy>
  </scstep>
  <structure>
   <crystal>
    <varray name="basis" >
     <v>      15.00000000       0.00000000       0.00000000 </v>
     <v>       0.00000000      15.00000000       0.00000000 </v>
     <v>       0.00000000       0.00000000      15.00000000 </v>
    </varray>
    <i name="volume">   3375.00000000 </i>
    <varray name="rec_basis" >
     <v>       0.06666667       0.00000000       0.00000000 </v>
     <v>       0.00000000       0.06666667       0.00000000 </v>
     <v>       0.00000000       0.00000000       0.06666667 </v>
    </varray>
   </crystal>
   <varray name="positions" >
    <v>       0.37351814       0.54332260       0.59092857 </v>
    <v>       0.36935048       0.45476759       0.58136081 </v>
    <v>       0.44870423       0.39579411       0.56668778 </v>
    <v>       0.45969290       0.59394480       0.58544163 </v>
    <v>       0.52775717       0.54306230       0.52744714 </v>
    <v>       0.53916752       0.44619628       0.56336424 </v>
    <v>       0.61271797       0.59052707       0.52453559 </v>
    <v>       0.60261605       0.39551994       0.50955737 </v>
    <v>       0.30475341       0.42105642       0.58353270 </v>
    <v>       0.45258890       0.34571156       0.62041076 </v>
    <v>       0.43961470       0.35703377       0.50487876 </v>
    <v>       0.31250759       0.58161973       0.60174514 </v>
    <v>       0.48822644       0.60476057       0.65249819 </v>
    <v>       0.44912064       0.66075336       0.55712108 </v>
    <v>       0.50166524       0.53914856       0.45874090 </v>
    <v>       0.56680566       0.45162926       0.63132060 </v>
    <v>       0.67951186       0.63043846       0.52436282 </v>
    <v>       0.65006323       0.35358897       0.46433428 </v>
   </varray>
  </structure>
  <varray name="forces" >
   <v>       0.00297798      -0.00066839       0.01119580 </v>
   <v>       0.00045959      -0.00055760       0.01130433 </v>
   <v>      -0.00421685      -0.00093053      -0.01380373 </v>
   <v>      -0.00106307       0.00370780      -0.00895038 </v>
   <v>      -0.00082683      -0.00238544      -0.00231623 </v>
   <v>      -0.00398703      -0.00103544       0.00265366 </v>
   <v>       0.00154747      -0.00449666       0.00024770 </v>
   <v>       0.01035388      -0.00066217       0.01182078 </v>
   <v>       0.00098948      -0.00034123       0.03078972 </v>
   <v>      -0.00394033      -0.02427815      -0.03288032 </v>
   <v>      -0.00886179       0.02329422      -0.03122230 </v>
   <v>       0.00504667      -0.00258350       0.03099036 </v>
   <v>       0.00239818       0.02434931      -0.01372759 </v>
   <v>      -0.01060043      -0.00400238      -0.02535520 </v>
   <v>       0.00364363      -0.00584094      -0.00372605 </v>
   <v>      -0.01623067       0.00109106       0.00889972 </v>
   <v>       0.00233333      -0.01077297       0.00428717 </v>
   <v>       0.01997681       0.00611302       0.01979257 </v>
  </varray>
  <varray name="stress" >
   <v>      -1.19067447      -0.00757295      -0.02326199 </v>
   <v>      -0.00757295      -1.17482991       0.01294269 </v>
   <v>      -0.02326199       0.01294268      -1.20338813 </v>
  </varray>
  <energy>
   <i name="e_fr_energy">   -116.34738338 </i>
   <i name="e_wo_entrp">   -116.34738338 </i>
   <i name="e_0_energy">   -116.34738338 </i>
  </energy>
  <time name="totalsc">   19.85   21.21</time>
 </calculation>
 <calculation>
  <scstep>
   <time name="dav">    4.47    4.69</time>
   <time name="total">    7.23    7.68</time>
   <energy>
    <i name="alphaZ">      3.36120243 </i>
    <i name="ewald">   3105.35799562 </i>
    <i name="hartreedc">  -4555.77268404 </i>
    <i name="XCdc">    170.66436798 </i>
    <i name="pawpsdc">   4345.34679819 </i>
    <i name="pawaedc">  -4353.64919606 </i>
    <i name="eentropy">     -0.00000000 </i>
    <i name="bandstr">   -637.21147278 </i>
    <i name="atom">   1805.79685712 </i>
    <i name="e_fr_energy">   -116.10613154 </i>
    <i name="e_wo_entrp">   -116.10613154 </i>
    <i name="e_0_energy">   -116.10613154 </i>
   </energy>
  </scstep>
  <scstep>
   <time name="diag">    0.78    0.79</time>
   <time name="diis">    3.19    3.36</time>
   <time name="orth">    0.01    0.02</time>
   <time name="total">    6.22    6.58</time>
   <energy>
    <i name="e_fr_energy">   -116.10613824 </i>
    <i name="e_wo_entrp">   -116.10613824 </i>
    <i name="e_0_energy">   -116.10613824 </i>
   </energy>
  </scstep>
  <scstep>
   <time name="diag">    0.49    0.49</time>
   <time name="diis">    3.84    3.87</time>
   <time name="orth">    0.03    0.03</time>
   <time name="total">    6.25    6.29</time>
   <energy>
    <i name="alphaZ">      3.36120243 </i>
    <i name="ewald">   3105.35799562 </i>
    <i name="hartreedc">  -4555.78424017 </i>
    <i name="XCdc">    170.66488354 </i>
    <i name="pawpsdc">   4345.48193999 </i>
    <i name="pawaedc">  -4353.78445081 </i>
    <i name="eentropy">     -0.00000000 </i>
    <i name="bandstr">   -637.20033145 </i>
    <i name="atom">   1805.79685712 </i>
    <i name="e_fr_energy">   -116.10614374 </i>
    <i name="e_wo_entrp">   -116.10614374 </i>
    <i name="e_0_energy">   -116.10614374 </i>
   </energy>
  </scstep>
  <structure>
   <crystal>
    <varray name="basis" >
     <v>      15.00000000       0.00000000       0.00000000 </v>
     <v>       0.00000000      15.00000000       0.00000000 </v>
     <v>       0.00000000       0.00000000      15.00000000 </v>
    </varray>
    <i name="volume">   3375.00000000 </i>
    <varray name="rec_basis" >
     <v>       0.06666667       0.00000000       0.00000000 </v>
     <v>       0.00000000       0.06666667       0.00000000 </v>
     <v>       0.00000000       0.00000000       0.06666667 </v>
    </varray>
   </crystal>
   <varray name="positions" >
    <v>       0.37353194       0.54331774       0.59097929 </v>
    <v>       0.36935275       0.45476341       0.58142178 </v>
    <v>       0.44868662       0.39579032       0.56665075 </v>
    <v>       0.45968923       0.59395737       0.58540130 </v>
    <v>       0.52774673       0.54304999       0.52742746 </v>
    <v>       0.53914677       0.44618599       0.56335619 </v>
    <v>       0.61271150       0.59049872       0.52452236 </v>
    <v>       0.60262058       0.39551639       0.50956558 </v>
    <v>       0.30476012       0.42105048       0.58368681 </v>
    <v>       0.45258838       0.34563955       0.62030550 </v>
    <v>       0.43956999       0.35711336       0.50479518 </v>
    <v>       0.31253167       0.58160696       0.60187996 </v>
    <v>       0.48824270       0.60485978       0.65243356 </v>
    <v>       0.44907295       0.66073280       0.55701222 </v>
    <v>       0.50166809       0.53912641       0.45871892 </v>
    <v>       0.56676208       0.45162167       0.63132264 </v>
    <v>       0.67951949       0.63038243       0.52436437 </v>
    <v>       0.65009371       0.35361314       0.46434758 </v>
   </varray>
  </structure>
  <varray name="forces" >
   <v>       0.00160305      -0.00047348       0.01365291 </v>
   <v>       0.00075035      -0.00231293       0.01319821 </v>
   <v>      -0.00305785       0.00000465      -0.01478212 </v>
   <v>      -0.00337808       0.00413655      -0.01011434 </v>
   <v>      -0.00070782      -0.00274687      -0.00215733 </v>
   <v>      -0.00208275      -0.00100135       0.00207897 </v>
   <v>       0.00273311      -0.00502980      -0.00022774 </v>
   <v>       0.00696284       0.00249935       0.01408782 </v>
   <v>       0.00062211      -0.00046480       0.02952898 </v>
   <v>      -0.00460177      -0.02449019      -0.03173051 </v>
   <v>      -0.00875176       0.02210318      -0.03156777 </v>
   <v>       0.00458408      -0.00239832       0.03019514 </v>
   <v>       0.00216557       0.02346334      -0.01287464 </v>
   <v>      -0.00989714      -0.00482783      -0.02435082 </v>
   <v>       0.00284781      -0.00597293      -0.00449955 </v>
   <v>      -0.01613002       0.00099175       0.00847719 </v>
   <v>       0.00592385      -0.00661247       0.00374289 </v>
   <v>       0.02041442       0.00313214       0.01734271 </v>
  </varray>
  <varray name="stress" >
   <v>      -1.18552984      -0.00613843      -0.02334788 </v>
   <v>      -0.00613843      -1.17194880       0.01351469 </v>
   <v>      -0.02334788       0.01351469      -1.20080653 </v>
  </varray>
  <energy>
   <i name="e_fr_energy">   -116.34784936 </i>
   <i name="e_wo_entrp">   -116.34784936 </i>
   <i name="e_0_energy">   -116.34784936 </i>
  </energy>
  <time name="totalsc">   32.11   33.55</time>
  <eigenvalues>
   <array>
    <dimension dim="1">band</dimension>
    <dimension dim="2">kpoint</dimension>
    <dimension dim="3">spin</dimension>
    <field>eigene</field>
    <field>occ</field>
    <set>
     <set comment="spin 1">
      <set comment="kpoint 1">
       <r>  -22.8297    1.0000 </r>
       <r>  -22.4701    1.0000 </r>
       <r>  -21.7231    1.0000 </r>
       <r>  -19.6762    1.0000 </r>
       <r>  -19.6068    1.0000 </r>
       <r>  -16.8004    1.0000 </r>
       <r>  -16.3865    1.0000 </r>
       <r>  -13.8816    1.0000 </r>
       <r>  -13.7114    1.0000 </r>
       <r>  -12.9843    1.0000 </r>
       <r>  -11.7815    1.0000 </r>
       <r>  -11.5229    1.0000 </r>
       <r>  -11.0981    1.0000 </r>
       <r>  -10.4859    1.0000 </r>
       <r>  -10.4209    1.0000 </r>
       <r>   -9.5907    1.0000 </r>
       <r>   -9.2766    1.0000 </r>
       <r>   -8.9889    1.0000 </r>
       <r>   -8.4757    1.0000 </r>
       <r>   -8.4066    1.0000 </r>
       <r>   -8.2657    1.0000 </r>
       <r>   -8.0204    1.0000 </r>
       <r>   -7.8614    1.0000 </r>
       <r>   -7.7955    1.0000 </r>
       <r>   -6.5392    1.0000 </r>
       <r>   -1.3146    0.0000 </r>
       <r>   -0.8455    0.0000 </r>
       <r>   -0.7406    0.0000 </r>
       <r>   -0.6763    0.0000 </r>
       <r>   -0.3256    0.0000 </r>
       <r>   -0.2524    0.0000 </r>
       <r>   -0.0717    0.0000 </r>
       <r>    0.0070    0.0000 </r>
       <r>    0.1649    0.0000 </r>
       <r>    0.4365    0.0000 </r>
      </set>
     </set>
    </set>
   </array>
  </eigenvalues>
  <separator name="orbital magnetization" >
   <v name="MAGDIPOLOUT">      0.00000000      0.00000000      0.00000000</v>
  </separator>
 </calculation>
 <structure name="finalpos" >
  <crystal>
   <varray name="basis" >
    <v>      15.00000000       0.00000000       0.00000000 </v>
    <v>       0.00000000      15.00000000       0.00000000 </v>
    <v>       0.00000000       0.00000000      15.00000000 </v>
   </varray>
   <i name="volume">   3375.00000000 </i>
   <varray name="rec_basis" >
    <v>       0.06666667       0.00000000       0.00000000 </v>
    <v>       0.00000000       0.06666667       0.00000000 </v>
    <v>       0.00000000       0.00000000       0.06666667 </v>
   </varray>
  </crystal>
  <varray name="positions" >
   <v>       0.37353194       0.54331774       0.59097929 </v>
   <v>       0.36935275       0.45476341       0.58142178 </v>
   <v>       0.44868662       0.39579032       0.56665075 </v>
   <v>       0.45968923       0.59395737       0.58540130 </v>
   <v>       0.52774673       0.54304999       0.52742746 </v>
   <v>       0.53914677       0.44618599       0.56335619 </v>
   <v>       0.61271150       0.59049872       0.52452236 </v>
   <v>       0.60262058       0.39551639       0.50956558 </v>
   <v>       0.30476012       0.42105048       0.58368681 </v>
   <v>       0.45258838       0.34563955       0.62030550 </v>
   <v>       0.43956999       0.35711336       0.50479518 </v>
   <v>       0.31253167       0.58160696       0.60187996 </v>
   <v>       0.48824270       0.60485978       0.65243356 </v>
   <v>       0.44907295       0.66073280       0.55701222 </v>
   <v>       0.50166809       0.53912641       0.45871892 </v>
   <v>       0.56676208       0.45162167       0.63132264 </v>
   <v>       0.67951949       0.63038243       0.52436437 </v>
   <v>       0.65009371       0.35361314       0.46434758 </v>
  </varray>
 </structure>
</modeling>
