unknown system                          
           1
    15.000000    0.000000    0.000000
     0.000000   15.000000    0.000000
     0.000000    0.000000   15.000000
   C    H    N 
     8     8     2
Direct configuration=     1
   0.37435168  0.54436820  0.58346789
   0.37061891  0.45520871  0.57774742
   0.45139939  0.39850899  0.56595731
   0.46186681  0.59111420  0.58803261
   0.52900100  0.54373649  0.52696459
   0.54029450  0.44923839  0.56534974
   0.61050070  0.59622853  0.52412523
   0.60353349  0.39269664  0.51810792
   0.30682159  0.42022718  0.57699149
   0.45564805  0.34645825  0.61690445
   0.44615725  0.36198082  0.50339537
   0.31344897  0.58389295  0.58761175
   0.49129604  0.58851868  0.65504068
   0.45525791  0.66172394  0.57257136
   0.50526353  0.53911924  0.45825275
   0.56591740  0.45642671  0.63310211
   0.66762276  0.64872634  0.52738080
   0.64276020  0.33822360  0.47910969
Direct configuration=     2
   0.37414976  0.54406542  0.58375511
   0.37053702  0.45540991  0.57766647
   0.45128490  0.39845341  0.56611773
   0.46185129  0.59120859  0.58790802
   0.52924650  0.54381734  0.52695395
   0.54057550  0.44914121  0.56523793
   0.61042761  0.59626040  0.52424362
   0.60339090  0.39270751  0.51799066
   0.30676829  0.42024646  0.57693871
   0.45562091  0.34639015  0.61711143
   0.44603582  0.36179514  0.50319446
   0.31342080  0.58389640  0.58764768
   0.49122023  0.58855644  0.65522138
   0.45529099  0.66189741  0.57241402
   0.50502642  0.53910967  0.45807999
   0.56597192  0.45648417  0.63332077
   0.66789048  0.64875513  0.52730659
   0.64296984  0.33815755  0.47893293
Direct configuration=     3
   0.37404631  0.54407460  0.58401427
   0.37044409  0.45533098  0.57759619
   0.45120937  0.39838211  0.56615784
   0.46182256  0.59125397  0.58787061
   0.52935017  0.54384254  0.52688339
   0.54074445  0.44910034  0.56524414
   0.61062418  0.59651122  0.52435352
   0.60347101  0.39246853  0.51770965
   0.30672665  0.42027575  0.57688644
   0.45558284  0.34632991  0.61729835
   0.44592006  0.36166824  0.50308439
   0.31338589  0.58388819  0.58769285
   0.49111950  0.58861059  0.65533138
   0.45531420  0.66204287  0.57225511
   0.50484112  0.53910716  0.45798781
   0.56601454  0.45652705  0.63347494
   0.66795901  0.64860428  0.52723051
   0.64303663  0.33829652  0.47891109
Direct configuration=     4
   0.37391516  0.54402411  0.58441665
   0.37032057  0.45528228  0.57750184
   0.45111886  0.39824106  0.56618808
   0.46178370  0.59134154  0.58783018
   0.52953145  0.54390059  0.52676958
   0.54101978  0.44900573  0.56524214
   0.61056120  0.59658590  0.52451170
   0.60332470  0.39245607  0.51754381
   0.30662556  0.42030807  0.57679647
   0.45550904  0.34623442  0.61758198
   0.44573013  0.36147920  0.50292673
   0.31330181  0.58388625  0.58778339
   0.49093905  0.58871902  0.65548740
   0.45535172  0.66225589  0.57198520
   0.50455671  0.53910722  0.45786590
   0.56608211  0.45658944  0.63370789
   0.66842402  0.64866076  0.52712732
   0.64342179  0.33818376  0.47863191
Direct configuration=     5
   0.37371801  0.54384465  0.58528366
   0.37011479  0.45527865  0.57734449
   0.45097737  0.39784880  0.56615911
   0.46169361  0.59158340  0.58780472
   0.52977029  0.54397358  0.52654029
   0.54146984  0.44883803  0.56533917
   0.61085624  0.59713169  0.52486543
   0.60338777  0.39200780  0.51692906
   0.30631005  0.42035279  0.57657465
   0.45529121  0.34601205  0.61814118
   0.44528673  0.36110558  0.50260415
   0.31304700  0.58389350  0.58805889
   0.49046905  0.58905467  0.65577274
   0.45543098  0.66266463  0.57131206
   0.50395686  0.53911209  0.45767898
   0.56621559  0.45671537  0.63419769
   0.66921461  0.64846811  0.52689399
   0.64415834  0.33829214  0.47826599
Direct configuration=     6
   0.37376119  0.54390024  0.58521603
   0.37015038  0.45525063  0.57737918
   0.45101016  0.39785208  0.56612537
   0.46169542  0.59158365  0.58782526
   0.52970976  0.54397047  0.52659396
   0.54138479  0.44883398  0.56534824
   0.61084583  0.59710473  0.52483312
   0.60342914  0.39203438  0.51701135
   0.30630071  0.42035241  0.57657516
   0.45526829  0.34601639  0.61805189
   0.44530048  0.36115276  0.50262559
   0.31304708  0.58387922  0.58809332
   0.49046126  0.58910072  0.65572797
   0.45541846  0.66260029  0.57130486
   0.50401533  0.53911598  0.45773799
   0.56619490  0.45669622  0.63415050
   0.66922400  0.64846650  0.52691742
   0.64420484  0.33829704  0.47829657
Direct configuration=     7
   0.37377514  0.54388913  0.58528647
   0.37016546  0.45525588  0.57741480
   0.45101687  0.39778489  0.56607102
   0.46166865  0.59164138  0.58782886
   0.52967814  0.54399522  0.52666960
   0.54134898  0.44877024  0.56537302
   0.61092469  0.59720477  0.52486207
   0.60357463  0.39193188  0.51700407
   0.30622179  0.42037565  0.57651962
   0.45516010  0.34595729  0.61799204
   0.44521653  0.36114929  0.50256444
   0.31299182  0.58384358  0.58825151
   0.49033195  0.58930511  0.65573175
   0.45540617  0.66257634  0.57110380
   0.50398161  0.53912778  0.45781788
   0.56617326  0.45668065  0.63417375
   0.66940746  0.64836489  0.52690822
   0.64446765  0.33840373  0.47831955
Direct configuration=     8
   0.37376503  0.54387295  0.58545797
   0.37015685  0.45524173  0.57745598
   0.45100062  0.39766726  0.56598734
   0.46161589  0.59173794  0.58782470
   0.52968163  0.54404667  0.52677586
   0.54135969  0.44864372  0.56539640
   0.61098084  0.59731673  0.52493211
   0.60371618  0.39186709  0.51704689
   0.30609721  0.42043001  0.57641635
   0.45497024  0.34583888  0.61792905
   0.44505185  0.36111631  0.50243672
   0.31289995  0.58377441  0.58853319
   0.49009711  0.58966984  0.65576939
   0.45538509  0.66257524  0.57072571
   0.50389049  0.53915090  0.45793888
   0.56614332  0.45665543  0.63423985
   0.66981658  0.64823395  0.52687939
   0.64502112  0.33849665  0.47826958
Direct configuration=     9
   0.37378562  0.54392962  0.58540585
   0.37017807  0.45519490  0.57751673
   0.45099686  0.39767246  0.56592256
   0.46158595  0.59175017  0.58782533
   0.52964797  0.54406193  0.52691118
   0.54128164  0.44858872  0.56539359
   0.61102169  0.59732259  0.52491626
   0.60388772  0.39184531  0.51716853
   0.30608837  0.42047970  0.57638186
   0.45485825  0.34578023  0.61774276
   0.44501345  0.36117419  0.50239825
   0.31289405  0.58370115  0.58872073
   0.49000935  0.58992019  0.65574701
   0.45533874  0.66249113  0.57054687
   0.50395582  0.53917437  0.45809271
   0.56608118  0.45659344  0.63417971
   0.66991452  0.64809638  0.52690453
   0.64526883  0.33864831  0.47838114
Direct configuration=    10
   0.37377167  0.54389857  0.58543325
   0.37017097  0.45520854  0.57754550
   0.45095833  0.39765869  0.56586783
   0.46154856  0.59177602  0.58781220
   0.52968774  0.54407384  0.52700369
   0.54129547  0.44852608  0.56537771
   0.61100119  0.59728181  0.52494158
   0.60396420  0.39189676  0.51728941
   0.30606952  0.42053397  0.57633506
   0.45474133  0.34570047  0.61762395
   0.44494057  0.36118763  0.50233144
   0.31286942  0.58363284  0.58892814
   0.48989780  0.59019590  0.65577373
   0.45529038  0.66246398  0.57031374
   0.50396353  0.53920420  0.45821635
   0.56603264  0.45652962  0.63416635
   0.67011921  0.64798217  0.52690344
   0.64561616  0.33874715  0.47840785
Direct configuration=    11
   0.37377017  0.54389292  0.58541123
   0.37017246  0.45521227  0.57755577
   0.45093644  0.39767595  0.56584151
   0.46153265  0.59177465  0.58780584
   0.52969889  0.54406118  0.52705528
   0.54128183  0.44851675  0.56537001
   0.61105594  0.59728351  0.52494615
   0.60406601  0.39186817  0.51730907
   0.30608213  0.42056204  0.57632358
   0.45469363  0.34566984  0.61753965
   0.44492314  0.36120890  0.50231428
   0.31287092  0.58359466  0.58902945
   0.48986511  0.59033279  0.65578181
   0.45525304  0.66243535  0.57021801
   0.50399518  0.53922349  0.45828707
   0.56600088  0.45648026  0.63413765
   0.67011241  0.64785853  0.52690717
   0.64569898  0.33888695  0.47850066
Direct configuration=    12
   0.37375006  0.54389068  0.58548622
   0.37015359  0.45519416  0.57755042
   0.45089474  0.39765294  0.56579255
   0.46149917  0.59180580  0.58779419
   0.52974586  0.54405810  0.52712070
   0.54131107  0.44846444  0.56536058
   0.61107779  0.59725956  0.52499446
   0.60414768  0.39188536  0.51735003
   0.30605694  0.42061244  0.57627506
   0.45458436  0.34559824  0.61746851
   0.44483634  0.36119680  0.50225113
   0.31283981  0.58353043  0.58923827
   0.48974718  0.59060901  0.65582507
   0.45519794  0.66242969  0.56997008
   0.50397307  0.53925751  0.45838026
   0.56596831  0.45640997  0.63415051
   0.67030350  0.64770696  0.52688581
   0.64601867  0.33903025  0.47852557
Direct configuration=    13
   0.37373772  0.54387159  0.58556558
   0.37014055  0.45519954  0.57753295
   0.45086866  0.39762251  0.56575809
   0.46147840  0.59184021  0.58778910
   0.52977328  0.54405002  0.52715917
   0.54133153  0.44842718  0.56535924
   0.61112266  0.59725371  0.52504147
   0.60420696  0.39188411  0.51733724
   0.30602483  0.42064183  0.57623604
   0.45450685  0.34555402  0.61744292
   0.44476370  0.36117111  0.50220918
   0.31280661  0.58348968  0.58939765
   0.48965379  0.59081749  0.65586219
   0.45515403  0.66243167  0.56977578
   0.50393980  0.53928500  0.45843231
   0.56595520  0.45635300  0.63417374
   0.67044200  0.64757191  0.52685732
   0.64624867  0.33915544  0.47853301
Direct configuration=    14
   0.37372590  0.54386674  0.58565833
   0.37012561  0.45519202  0.57750964
   0.45084594  0.39758578  0.56572667
   0.46145918  0.59187834  0.58778647
   0.52979293  0.54404626  0.52719340
   0.54134813  0.44838715  0.56536157
   0.61116141  0.59723963  0.52509095
   0.60426092  0.39187674  0.51730139
   0.30598790  0.42066802  0.57619498
   0.45443307  0.34551866  0.61743709
   0.44468808  0.36113410  0.50217195
   0.31277213  0.58345163  0.58955454
   0.48955903  0.59102093  0.65589875
   0.45511078  0.66243621  0.56958123
   0.50389686  0.53931220  0.45847339
   0.56595004  0.45629646  0.63420259
   0.67059753  0.64744515  0.52682267
   0.64647126  0.33928167  0.47852520
Direct configuration=    15
   0.37370927  0.54385452  0.58580090
   0.37010381  0.45518630  0.57747385
   0.45080923  0.39752935  0.56567492
   0.46142699  0.59194003  0.58778280
   0.52981969  0.54404025  0.52725620
   0.54137024  0.44831689  0.56536008
   0.61121876  0.59719923  0.52516782
   0.60432115  0.39190809  0.51727179
   0.30593026  0.42071101  0.57612798
   0.45431242  0.34546673  0.61742284
   0.44456754  0.36107299  0.50211769
   0.31271810  0.58338755  0.58981833
   0.48940716  0.59136244  0.65595511
   0.45503481  0.66243587  0.56926151
   0.50383339  0.53935896  0.45854611
   0.56594117  0.45619562  0.63424074
   0.67085311  0.64723220  0.52676580
   0.64685878  0.33946731  0.47848987
Direct configuration=    16
   0.37370187  0.54384425  0.58586875
   0.37009429  0.45518808  0.57746004
   0.45078858  0.39750086  0.56564766
   0.46140794  0.59197230  0.58778140
   0.52982480  0.54403720  0.52729441
   0.54137111  0.44828259  0.56536214
   0.61128188  0.59720151  0.52520494
   0.60439314  0.39188227  0.51722622
   0.30590151  0.42073403  0.57609234
   0.45424829  0.34544241  0.61741182
   0.44450658  0.36104082  0.50209216
   0.31269151  0.58335289  0.58996030
   0.48932914  0.59154576  0.65598118
   0.45499336  0.66243071  0.56909378
   0.50380434  0.53938376  0.45858942
   0.56593528  0.45614000  0.63425458
   0.67095761  0.64709223  0.52673598
   0.64703004  0.33960794  0.47849970
Direct configuration=    17
   0.37369120  0.54383354  0.58597392
   0.37007911  0.45518718  0.57743666
   0.45075919  0.39745722  0.56560971
   0.46138015  0.59202157  0.58778048
   0.52983319  0.54403695  0.52735043
   0.54137495  0.44822484  0.56535916
   0.61132615  0.59715542  0.52525921
   0.60444467  0.39190678  0.51719038
   0.30585806  0.42076670  0.57603826
   0.45415563  0.34541488  0.61740741
   0.44441579  0.36098430  0.50206118
   0.31265266  0.58330221  0.59017330
   0.48921464  0.59181946  0.65601868
   0.45492900  0.66242196  0.56884375
   0.50375814  0.53942201  0.45864958
   0.56593188  0.45605256  0.63427359
   0.67115921  0.64691440  0.52668794
   0.64732129  0.33977091  0.47846415
Direct configuration=    18
   0.37367984  0.54382349  0.58609204
   0.37006216  0.45518465  0.57741372
   0.45071948  0.39740817  0.56556531
   0.46134144  0.59208060  0.58778078
   0.52983140  0.54403651  0.52742952
   0.54136471  0.44815303  0.56535124
   0.61140128  0.59709990  0.52531890
   0.60452195  0.39193002  0.51713075
   0.30581026  0.42080853  0.57597071
   0.45404149  0.34539377  0.61740444
   0.44430872  0.36090700  0.50203611
   0.31261068  0.58323681  0.59044639
   0.48907939  0.59216909  0.65605780
   0.45484138  0.66240121  0.56853440
   0.50370861  0.53947212  0.45873312
   0.56592845  0.45593237  0.63428074
   0.67138689  0.64666127  0.52662536
   0.64766283  0.34000339  0.47842064
Direct configuration=    19
   0.37367026  0.54381207  0.58619289
   0.37004785  0.45518529  0.57739556
   0.45068130  0.39736658  0.56552776
   0.46130465  0.59213273  0.58778128
   0.52982761  0.54403564  0.52750471
   0.54134940  0.44808948  0.56533939
   0.61145649  0.59702910  0.52536865
   0.60459130  0.39195500  0.51706939
   0.30577033  0.42084658  0.57590954
   0.45393925  0.34538381  0.61740734
   0.44421507  0.36082983  0.50202349
   0.31257583  0.58317692  0.59069973
   0.48896200  0.59249266  0.65608954
   0.45475594  0.66237784  0.56825443
   0.50366744  0.53951965  0.45881347
   0.56592686  0.45581472  0.63427673
   0.67159941  0.64642635  0.52656604
   0.64796202  0.34022882  0.47837385
Direct configuration=    20
   0.37365672  0.54379704  0.58633207
   0.37002745  0.45518513  0.57737116
   0.45062641  0.39731009  0.56547628
   0.46125168  0.59220524  0.58778188
   0.52982126  0.54403256  0.52761296
   0.54132788  0.44799761  0.56531690
   0.61153419  0.59692298  0.52543651
   0.60466577  0.39202031  0.51699949
   0.30571617  0.42090100  0.57582337
   0.45379494  0.34537461  0.61741444
   0.44408444  0.36071674  0.50201176
   0.31252861  0.58309146  0.59106132
   0.48879893  0.59295442  0.65613229
   0.45463133  0.66234225  0.56785872
   0.50361133  0.53958807  0.45893018
   0.56592535  0.45564319  0.63426449
   0.67189716  0.64608480  0.52648061
   0.64839912  0.34053318  0.47828558
Direct configuration=    21
   0.37365194  0.54379127  0.58638070
   0.37001984  0.45518582  0.57736390
   0.45060063  0.39729122  0.56546041
   0.46122773  0.59223308  0.58778292
   0.52981074  0.54402687  0.52766156
   0.54130737  0.44796448  0.56530254
   0.61158523  0.59687891  0.52545812
   0.60471607  0.39202881  0.51693785
   0.30569921  0.42092333  0.57578924
   0.45373832  0.34538604  0.61742866
   0.44403631  0.36065832  0.50202430
   0.31251448  0.58305590  0.59121659
   0.48874085  0.59315212  0.65614334
   0.45457050  0.66232090  0.56769917
   0.50359294  0.53961890  0.45898382
   0.56592747  0.45555978  0.63424316
   0.67199424  0.64590663  0.52644017
   0.64854067  0.34070469  0.47825213
Direct configuration=    22
   0.37363840  0.54377574  0.58651890
   0.36999883  0.45518666  0.57734012
   0.45054098  0.39723656  0.56541317
   0.46117132  0.59230643  0.58778371
   0.52980090  0.54402028  0.52777747
   0.54127744  0.44787105  0.56526995
   0.61164946  0.59673811  0.52552252
   0.60478217  0.39211239  0.51685319
   0.30564742  0.42097962  0.57570119
   0.45359089  0.34539346  0.61745143
   0.44390535  0.36052560  0.50203209
   0.31247014  0.58296689  0.59160059
   0.48858039  0.59364215  0.65618147
   0.45442963  0.66227767  0.56728958
   0.50353791  0.53969330  0.45911016
   0.56593001  0.45536653  0.63421325
   0.67231061  0.64553431  0.52634483
   0.64898074  0.34104239  0.47813667
Direct configuration=    23
   0.37362707  0.54376118  0.58663817
   0.36997975  0.45518971  0.57732029
   0.45048101  0.39719139  0.56538019
   0.46111599  0.59237306  0.58778545
   0.52977969  0.54400624  0.52789096
   0.54123372  0.44778802  0.56522658
   0.61172638  0.59658943  0.52557256
   0.60484502  0.39219476  0.51673461
   0.30560588  0.42103126  0.57562183
   0.45345761  0.34542977  0.61750034
   0.44379079  0.36037475  0.50207381
   0.31243666  0.58288362  0.59197312
   0.48844534  0.59411721  0.65620544
   0.45427874  0.66222603  0.56690970
   0.50349095  0.53976788  0.45923569
   0.56594006  0.45516063  0.63415684
   0.67258040  0.64512589  0.52624377
   0.64934925  0.34141425  0.47800162
Direct configuration=    24
   0.37362110  0.54375337  0.58670765
   0.36996792  0.45519237  0.57730780
   0.45044383  0.39716658  0.56536968
   0.46108265  0.59241166  0.58778646
   0.52976038  0.54399399  0.52795892
   0.54119909  0.44774098  0.56519250
   0.61176328  0.59647364  0.52559669
   0.60487328  0.39225401  0.51663655
   0.30558358  0.42106029  0.57557766
   0.45338199  0.34547245  0.61755464
   0.44372638  0.36026316  0.50212376
   0.31242089  0.58283521  0.59220260
   0.48837461  0.59441020  0.65621229
   0.45417579  0.66218973  0.56668537
   0.50346227  0.53981493  0.45931132
   0.56595372  0.45502165  0.63410638
   0.67274461  0.64485522  0.52617413
   0.64954300  0.34166733  0.47789049
Direct configuration=    25
   0.37362275  0.54375487  0.58669499
   0.36996949  0.45519279  0.57730950
   0.45044886  0.39717224  0.56537871
   0.46108754  0.59240434  0.58778615
   0.52975703  0.54399234  0.52794774
   0.54119897  0.44774951  0.56519087
   0.61175944  0.59647892  0.52558813
   0.60485260  0.39226136  0.51663829
   0.30558910  0.42105403  0.57558750
   0.45339770  0.34548199  0.61756581
   0.44374003  0.36026438  0.50213528
   0.31242669  0.58284436  0.59217007
   0.48839418  0.59436884  0.65620549
   0.45418289  0.66219169  0.56672425
   0.50346610  0.53980896  0.45929892
   0.56595779  0.45503224  0.63410183
   0.67271261  0.64487341  0.52617822
   0.64949747  0.34164087  0.47787799
Direct configuration=    26
   0.37362144  0.54375309  0.58671159
   0.36996612  0.45519407  0.57730626
   0.45043904  0.39716674  0.56538103
   0.46107890  0.59241302  0.58778640
   0.52974848  0.54398798  0.52796389
   0.54118674  0.44773826  0.56517860
   0.61176289  0.59643773  0.52559116
   0.60485084  0.39228436  0.51660340
   0.30558429  0.42105996  0.57557877
   0.45338171  0.34550283  0.61759261
   0.44372601  0.36022649  0.50215976
   0.31242436  0.58283404  0.59222734
   0.48838212  0.59444218  0.65620404
   0.45415230  0.66218147  0.56667209
   0.50345755  0.53982113  0.45931609
   0.56596520  0.45499210  0.63408240
   0.67275631  0.64479680  0.52615674
   0.64953562  0.34171168  0.47783100
Direct configuration=    27
   0.37361432  0.54374026  0.58684205
   0.36993683  0.45520271  0.57727885
   0.45035916  0.39712968  0.56544170
   0.46101158  0.59246811  0.58778128
   0.52964334  0.54393293  0.52807016
   0.54106343  0.44766928  0.56505671
   0.61184182  0.59609298  0.52559063
   0.60477487  0.39250593  0.51622494
   0.30555451  0.42109370  0.57553016
   0.45328194  0.34574593  0.61791274
   0.44363404  0.35984376  0.50244762
   0.31242144  0.58276553  0.59267944
   0.48833652  0.59501769  0.65616874
   0.45387461  0.66209064  0.56629061
   0.50338136  0.53991573  0.45943520
   0.56605911  0.45463404  0.63387893
   0.67303848  0.64407124  0.52595374
   0.64970318  0.34234858  0.47732635
Direct configuration=    28
   0.37361394  0.54373982  0.58682801
   0.36993992  0.45520157  0.57728313
   0.45037122  0.39713042  0.56543100
   0.46102212  0.59246383  0.58778228
   0.52966631  0.54394913  0.52805269
   0.54108854  0.44767328  0.56507628
   0.61178651  0.59611875  0.52559302
   0.60475969  0.39249862  0.51630769
   0.30555584  0.42108889  0.57553709
   0.45329533  0.34570358  0.61786339
   0.44364396  0.35990333  0.50239826
   0.31241924  0.58277609  0.59261057
   0.48833937  0.59492907  0.65617662
   0.45392019  0.66210829  0.56634329
   0.50338837  0.53989953  0.45941252
   0.56604508  0.45469433  0.63391770
   0.67304158  0.64421668  0.52598551
   0.64971168  0.34221757  0.47738016
Direct configuration=    29
   0.37361207  0.54373684  0.58685328
   0.36993387  0.45520295  0.57727872
   0.45035664  0.39712131  0.56544371
   0.46101024  0.59247517  0.58778200
   0.52964505  0.54394110  0.52806856
   0.54106563  0.44766112  0.56505761
   0.61181086  0.59606884  0.52559231
   0.60475542  0.39252377  0.51622652
   0.30554929  0.42109380  0.57553067
   0.45327965  0.34574740  0.61792586
   0.44362741  0.35983323  0.50245069
   0.31241830  0.58276606  0.59268581
   0.48833332  0.59502426  0.65617010
   0.45387276  0.66209520  0.56627879
   0.50337153  0.53991400  0.45942822
   0.56606343  0.45463527  0.63388465
   0.67308320  0.64408193  0.52594913
   0.64972708  0.34233816  0.47729015
Direct configuration=    30
   0.37360977  0.54373470  0.58687515
   0.36992854  0.45520245  0.57727623
   0.45034592  0.39711209  0.56545325
   0.46100125  0.59248518  0.58778161
   0.52963046  0.54393745  0.52807715
   0.54105254  0.44765009  0.56504534
   0.61182579  0.59603513  0.52559226
   0.60474282  0.39254974  0.51617536
   0.30554261  0.42109712  0.57552695
   0.45326822  0.34577596  0.61797213
   0.44361343  0.35978284  0.50248575
   0.31241634  0.58275948  0.59273751
   0.48832796  0.59508894  0.65616642
   0.45384118  0.66208880  0.56623139
   0.50335628  0.53992223  0.45943582
   0.56607702  0.45459797  0.63386595
   0.67312026  0.64399167  0.52592385
   0.64974804  0.34241069  0.47721501
Direct configuration=    31
   0.37360716  0.54373199  0.58689958
   0.36992252  0.45520241  0.57727374
   0.45033385  0.39710195  0.56546417
   0.46099118  0.59249610  0.58778093
   0.52961614  0.54393392  0.52808712
   0.54103790  0.44763818  0.56503070
   0.61182484  0.59598257  0.52559192
   0.60472699  0.39258105  0.51611846
   0.30553498  0.42110092  0.57552280
   0.45325499  0.34580870  0.61802478
   0.44359751  0.35972518  0.50252615
   0.31241407  0.58275185  0.59279700
   0.48832188  0.59516340  0.65616194
   0.45380470  0.66208116  0.56617729
   0.50333933  0.53993182  0.45944516
   0.56609230  0.45455487  0.63384369
   0.67317783  0.64389980  0.52589499
   0.64977284  0.34249315  0.47712816
Direct configuration=    32
   0.37355804  0.54367711  0.58737234
   0.36980617  0.45520370  0.57722950
   0.45009893  0.39690380  0.56567563
   0.46079443  0.59270976  0.58776660
   0.52931575  0.54385172  0.52827952
   0.54075053  0.44740854  0.56475069
   0.61199332  0.59511047  0.52558391
   0.60446426  0.39314190  0.51498603
   0.30538591  0.42117519  0.57544574
   0.45299662  0.34643829  0.61904252
   0.44328744  0.35860905  0.50330765
   0.31236988  0.58260346  0.59395159
   0.48820400  0.59660890  0.65607198
   0.45309731  0.66193355  0.56512656
   0.50301132  0.54011559  0.45962985
   0.56638501  0.45372325  0.63341209
   0.67413297  0.64199045  0.52533835
   0.65022108  0.34413195  0.47547170
Direct configuration=    33
   0.37356675  0.54368921  0.58727943
   0.36982836  0.45520155  0.57724470
   0.45014621  0.39693872  0.56563267
   0.46083390  0.59266962  0.58776845
   0.52937857  0.54386969  0.52823705
   0.54081453  0.44745348  0.56481018
   0.61197708  0.59531118  0.52558364
   0.60452964  0.39301320  0.51521428
   0.30541262  0.42116097  0.57546727
   0.45304607  0.34630188  0.61883124
   0.44334607  0.35883909  0.50314553
   0.31237763  0.58263243  0.59371648
   0.48822557  0.59631311  0.65608537
   0.45324340  0.66196468  0.56533780
   0.50307581  0.54007309  0.45959163
   0.56632120  0.45390240  0.63350334
   0.67392922  0.64236266  0.52545512
   0.65012439  0.34381068  0.47580726
Direct configuration=    34
   0.37355993  0.54368210  0.58734267
   0.36981258  0.45520098  0.57724283
   0.45011555  0.39691071  0.56566020
   0.46080815  0.59269844  0.58776518
   0.52934301  0.54386102  0.52826055
   0.54078099  0.44742186  0.56477403
   0.61198386  0.59519195  0.52558147
   0.60449090  0.39309042  0.51507624
   0.30539113  0.42117127  0.57546111
   0.45301056  0.34637821  0.61896100
   0.44330303  0.35869573  0.50324493
   0.31237093  0.58261245  0.59386686
   0.48820910  0.59650058  0.65607123
   0.45315251  0.66194653  0.56519933
   0.50303220  0.54009402  0.45961551
   0.56635664  0.45380008  0.63344931
   0.67407056  0.64212082  0.52538478
   0.65019022  0.34402071  0.47558142
Direct configuration=    35
   0.37355823  0.54368037  0.58735667
   0.36980898  0.45519968  0.57724862
   0.45010989  0.39690262  0.56566542
   0.46080282  0.59270502  0.58776162
   0.52933817  0.54386019  0.52826205
   0.54077849  0.44741533  0.56476959
   0.61199275  0.59518410  0.52557902
   0.60449226  0.39309485  0.51505242
   0.30538393  0.42117406  0.57546614
   0.45300107  0.34638324  0.61898016
   0.44329081  0.35867252  0.50325932
   0.31236808  0.58260769  0.59389452
   0.48820429  0.59653387  0.65606476
   0.45313758  0.66194466  0.56517105
   0.50302257  0.54009287  0.45961923
   0.56635891  0.45379074  0.63344302
   0.67409650  0.64206927  0.52537595
   0.65020026  0.34406644  0.47553697
Direct configuration=    36
   0.37354611  0.54366831  0.58746276
   0.36978226  0.45519378  0.57726719
   0.45006219  0.39685062  0.56570852
   0.46076083  0.59275299  0.58774520
   0.52928905  0.54384844  0.52828906
   0.54073783  0.44736406  0.56472071
   0.61201905  0.59503564  0.52556834
   0.60445077  0.39319586  0.51485365
   0.30534087  0.42119354  0.57547914
   0.45293604  0.34647000  0.61916284
   0.44320958  0.35846221  0.50339927
   0.31235284  0.58257234  0.59412917
   0.48817329  0.59682252  0.65602972
   0.45300190  0.66192070  0.56494546
   0.50295071  0.54010807  0.45965354
   0.56639921  0.45366377  0.63337188
   0.67432454  0.64167521  0.52528123
   0.65030502  0.34440879  0.47517013
Direct configuration=    37
   0.37354682  0.54366822  0.58745646
   0.36978413  0.45519338  0.57727147
   0.45006545  0.39685283  0.56570506
   0.46076356  0.59274990  0.58774294
   0.52929394  0.54385010  0.52828521
   0.54074160  0.44736752  0.56472716
   0.61201763  0.59505176  0.52556731
   0.60446321  0.39318034  0.51486951
   0.30534195  0.42119318  0.57548524
   0.45293819  0.34645476  0.61914305
   0.44321178  0.35848204  0.50338502
   0.31235285  0.58257352  0.59411327
   0.48817427  0.59680201  0.65602852
   0.45301264  0.66192309  0.56495838
   0.50295547  0.54010233  0.45965022
   0.56639189  0.45368116  0.63338088
   0.67431356  0.64170063  0.52529227
   0.65029576  0.34439279  0.47519589
Direct configuration=    38
   0.37354502  0.54366591  0.58747349
   0.36978005  0.45519248  0.57727520
   0.45005739  0.39684460  0.56571172
   0.46075665  0.59275762  0.58773973
   0.52928471  0.54384773  0.52828993
   0.54073357  0.44735912  0.56472019
   0.61202883  0.59503144  0.52556539
   0.60445955  0.39319531  0.51483645
   0.30533514  0.42119665  0.57548923
   0.45292728  0.34646734  0.61917078
   0.44319816  0.35844942  0.50340705
   0.31235047  0.58256735  0.59415251
   0.48816918  0.59685019  0.65602211
   0.45299013  0.66191883  0.56492059
   0.50294421  0.54010418  0.45965578
   0.56639742  0.45366122  0.63337017
   0.67434594  0.64162998  0.52527746
   0.65031228  0.34445280  0.47513694
Direct configuration=    39
   0.37354363  0.54366438  0.58748553
   0.36977717  0.45519117  0.57727974
   0.45005199  0.39683871  0.56571616
   0.46075182  0.59276271  0.58773603
   0.52928035  0.54384646  0.52829209
   0.54072934  0.44735308  0.56471572
   0.61202613  0.59501170  0.52556351
   0.60445402  0.39320909  0.51482007
   0.30532995  0.42119937  0.57549473
   0.45291903  0.34647273  0.61918686
   0.44318757  0.35842908  0.50342043
   0.31234856  0.58256251  0.59417963
   0.48816535  0.59688318  0.65601637
   0.45297504  0.66191589  0.56489349
   0.50293656  0.54010374  0.45965903
   0.56639956  0.45365048  0.63336410
   0.67437902  0.64158850  0.52526925
   0.65032778  0.34449076  0.47509264
Direct configuration=    40
   0.37354072  0.54366073  0.58751166
   0.36977096  0.45518889  0.57728899
   0.45003993  0.39682595  0.56572589
   0.46074118  0.59277400  0.58772847
   0.52926818  0.54384245  0.52829724
   0.54071832  0.44734095  0.56470687
   0.61203968  0.59498159  0.52555953
   0.60445286  0.39322795  0.51477362
   0.30531886  0.42120506  0.57550600
   0.45290137  0.34648567  0.61922269
   0.44316494  0.35838429  0.50345015
   0.31234445  0.58255220  0.59423887
   0.48815713  0.59695533  0.65600423
   0.45294181  0.66190931  0.56483468
   0.50291994  0.54010335  0.45966635
   0.56640458  0.45362586  0.63335044
   0.67443375  0.64148582  0.52525076
   0.65035200  0.34458354  0.47500500
Direct configuration=    41
   0.37353723  0.54365582  0.58754404
   0.36976335  0.45518606  0.57730206
   0.45002492  0.39680995  0.56573753
   0.46072809  0.59278809  0.58771822
   0.52925421  0.54383820  0.52830320
   0.54070562  0.44732481  0.56469617
   0.61205145  0.59494022  0.52555433
   0.60444510  0.39325943  0.51472435
   0.30530499  0.42121228  0.57552303
   0.45287909  0.34649876  0.61926415
   0.44313614  0.35833141  0.50348539
   0.31233932  0.58253890  0.59431288
   0.48814678  0.59704514  0.65598789
   0.45290066  0.66190093  0.56476061
   0.50289980  0.54010149  0.45967491
   0.56640916  0.45359750  0.63333503
   0.67450698  0.64136003  0.52522915
   0.65038927  0.34469417  0.47489017
Direct configuration=    42
   0.37350793  0.54361677  0.58781346
   0.36969976  0.45516263  0.57740313
   0.44989999  0.39667820  0.56583623
   0.46061899  0.59290498  0.58763659
   0.52913604  0.54380151  0.52835492
   0.54059502  0.44719515  0.56460521
   0.61214456  0.59458658  0.52551309
   0.60440265  0.39349410  0.51427788
   0.30519105  0.42127108  0.57565316
   0.45269600  0.34662253  0.61962275
   0.44290008  0.35787958  0.50378714
   0.31229748  0.58242979  0.59492948
   0.48806168  0.59779487  0.65585671
   0.45255545  0.66183035  0.56414636
   0.50273085  0.54009268  0.45974765