 vasp.6.3.2 27Jun22 (build Oct 05 2023 17:59:42) gamma-only                     
  
 executed on             LinuxIFC date 2024.04.05  18:28:44
 running on   18 total cores
 each image running on    2 cores
 distrk:  each k-point on    2 cores,    1 groups
 distr:  one band on NCORE=   1 cores,    2 groups


--------------------------------------------------------------------------------------------------------


 INCAR:
   ENCUT = 400.000000
   SIGMA = 0.050000
   ALGO = Fast
   GGA = PE
   ISMEAR = 0
   ISPIN = 1
   IVDW = 11
   LCHARG = .FALSE.
   LWAVE = .FALSE.
   EDIFF = 1E-05
   EDIFFG = -0.05
   NSW = 5000
   IBRION = 1
   SPRING = -5
   POTIM = 0.1
   PREC = NORMAL
   IMAGES = 9
   LCLIMB = .TRUE.

 POTCAR:    PAW_PBE C 08Apr2002                   
 POTCAR:    PAW_PBE H 15Jun2001                   
 POTCAR:    PAW_PBE N 08Apr2002                   
 POTCAR:    PAW_PBE C 08Apr2002                   
   SHA256 =  253f7b50bb8d59471dbedb8285d89021f4a42ed1a2c5d38a03a736e69125dd95 C/POTCAR              
   COPYR  = (c) Copyright 08Apr2002 Georg Kresse                                                    
   COPYR  = This file is part of the software VASP. Any use, copying, and all other rights are regul
   COPYR  = If you do not have a valid VASP license, you may not use, copy or distribute this file. 
   VRHFIN =C: s2p2                                                                                  
   LEXCH  = PE                                                                                      
   EATOM  =   147.1560 eV,   10.8157 Ry                                                             
                                                                                                    
   TITEL  = PAW_PBE C 08Apr2002                                                                     
   LULTRA =        F    use ultrasoft PP ?                                                          
   IUNSCR =        1    unscreen: 0-lin 1-nonlin 2-no                                               
   RPACOR =    1.200    partial core radius                                                         
   POMASS =   12.011; ZVAL   =    4.000    mass and valenz                                          
   RCORE  =    1.500    outmost cutoff radius                                                       
   RWIGS  =    1.630; RWIGS  =    0.863    wigner-seitz radius (au A)                               
   ENMAX  =  400.000; ENMIN  =  300.000 eV                                                          
   ICORE  =        2    local potential                                                             
   LCOR   =        T    correct aug charges                                                         
   LPAW   =        T    paw PP                                                                      
   EAUG   =  644.873                                                                                
   DEXC   =    0.000                                                                                
   RMAX   =    1.529    core radius for proj-oper                                                   
   RAUG   =    1.300    factor for augmentation sphere                                              
   RDEP   =    1.501    radius for radial grids                                                     
   RDEPT  =    1.300    core radius for aug-charge                                                  
                                                                                                    
   Atomic configuration                                                                             
    4 entries                                                                                       
     n  l   j            E        occ.                                                              
     1  0  0.50      -273.3789   2.0000                                                             
     2  0  0.50       -13.7508   2.0000                                                             
     2  1  0.50        -5.2854   2.0000                                                             
     3  2  1.50        -5.4423   0.0000                                                             
   Description                                                                                      
     l       E           TYP  RCUT    TYP  RCUT                                                     
     0    -13.7508458     23  1.200                                                                 
     0     -8.2022199     23  1.200                                                                 
     1     -5.2854383     23  1.500                                                                 
     1     34.0145650     23  1.500                                                                 
     2     -5.4423304      7  1.500                                                                 
  local pseudopotential read in
  partial core-charges read in
  partial kinetic energy density read in
  atomic valenz-charges read in
  non local Contribution for L=           0  read in
    real space projection operators read in
  non local Contribution for L=           0  read in
    real space projection operators read in
  non local Contribution for L=           1  read in
    real space projection operators read in
  non local Contribution for L=           1  read in
    real space projection operators read in
    PAW grid and wavefunctions read in
 
   number of l-projection  operators is LMAX  =           4
   number of lm-projection operators is LMMAX =           8
 
 POTCAR:    PAW_PBE H 15Jun2001                   
   SHA256 =  030f79b5d3ab3cf0e668861823c8fb652ff669f3e15e46930bd03bfd63a607b6 H/POTCAR              
   COPYR  = (c) Copyright 15Jun2001 Georg Kresse                                                    
   COPYR  = This file is part of the software VASP. Any use, copying, and all other rights are regul
   COPYR  = If you do not have a valid VASP license, you may not use, copy or distribute this file. 
   VRHFIN =H: ultrasoft test                                                                        
   LEXCH  = PE                                                                                      
   EATOM  =    12.4884 eV,    0.9179 Ry                                                             
                                                                                                    
   TITEL  = PAW_PBE H 15Jun2001                                                                     
   LULTRA =        F    use ultrasoft PP ?                                                          
   IUNSCR =        0    unscreen: 0-lin 1-nonlin 2-no                                               
   RPACOR =    0.000    partial core radius                                                         
   POMASS =    1.000; ZVAL   =    1.000    mass and valenz                                          
   RCORE  =    1.100    outmost cutoff radius                                                       
   RWIGS  =    0.700; RWIGS  =    0.370    wigner-seitz radius (au A)                               
   ENMAX  =  250.000; ENMIN  =  200.000 eV                                                          
   RCLOC  =    0.701    cutoff for local pot                                                        
   LCOR   =        T    correct aug charges                                                         
   LPAW   =        T    paw PP                                                                      
   EAUG   =  400.000                                                                                
   RMAX   =    1.123    core radius for proj-oper                                                   
   RAUG   =    1.200    factor for augmentation sphere                                              
   RDEP   =    1.112    radius for radial grids                                                     
   RDEPT  =    0.926    core radius for aug-charge                                                  
                                                                                                    
   Atomic configuration                                                                             
    2 entries                                                                                       
     n  l   j            E        occ.                                                              
     1  0  0.50        -6.4927   1.0000                                                             
     2  1  0.50        -3.4015   0.0000                                                             
   Description                                                                                      
     l       E           TYP  RCUT    TYP  RCUT                                                     
     0     -6.4927494     23  1.100                                                                 
     0      6.8029130     23  1.100                                                                 
     1     -4.0817478     23  1.100                                                                 
  local pseudopotential read in
  atomic valenz-charges read in
  non local Contribution for L=           0  read in
    real space projection operators read in
  non local Contribution for L=           0  read in
    real space projection operators read in
  non local Contribution for L=           1  read in
    real space projection operators read in
    PAW grid and wavefunctions read in
 
   number of l-projection  operators is LMAX  =           3
   number of lm-projection operators is LMMAX =           5
 
 POTCAR:    PAW_PBE N 08Apr2002                   
   SHA256 =  e053789ff3a61a86a1b75d8a110fcc91f86041011e7b0817c7c99e4e8a6349d7 N/POTCAR              
   COPYR  = (c) Copyright 08Apr2002 Georg Kresse                                                    
   COPYR  = This file is part of the software VASP. Any use, copying, and all other rights are regul
   COPYR  = If you do not have a valid VASP license, you may not use, copy or distribute this file. 
   VRHFIN =N: s2p3                                                                                  
   LEXCH  = PE                                                                                      
   EATOM  =   264.5486 eV,   19.4438 Ry                                                             
                                                                                                    
   TITEL  = PAW_PBE N 08Apr2002                                                                     
   LULTRA =        F    use ultrasoft PP ?                                                          
   IUNSCR =        1    unscreen: 0-lin 1-nonlin 2-no                                               
   RPACOR =    1.200    partial core radius                                                         
   POMASS =   14.001; ZVAL   =    5.000    mass and valenz                                          
   RCORE  =    1.500    outmost cutoff radius                                                       
   RWIGS  =    1.400; RWIGS  =    0.741    wigner-seitz radius (au A)                               
   ENMAX  =  400.000; ENMIN  =  300.000 eV                                                          
   ICORE  =        2    local potential                                                             
   LCOR   =        T    correct aug charges                                                         
   LPAW   =        T    paw PP                                                                      
   EAUG   =  627.112                                                                                
   DEXC   =    0.000                                                                                
   RMAX   =    1.529    core radius for proj-oper                                                   
   RAUG   =    1.300    factor for augmentation sphere                                              
   RDEP   =    1.514    radius for radial grids                                                     
   RDEPT  =    1.338    core radius for aug-charge                                                  
                                                                                                    
   Atomic configuration                                                                             
    4 entries                                                                                       
     n  l   j            E        occ.                                                              
     1  0  0.50      -384.7179   2.0000                                                             
     2  0  0.50       -18.5828   2.0000                                                             
     2  1  0.50        -7.0898   3.0000                                                             
     3  2  1.50        -6.8029   0.0000                                                             
   Description                                                                                      
     l       E           TYP  RCUT    TYP  RCUT                                                     
     0    -18.5828119     23  1.200                                                                 
     0    -13.5018863     23  1.200                                                                 
     1     -7.0897853     23  1.500                                                                 
     1      9.5240782     23  1.500                                                                 
     2     -6.8029130      7  1.500                                                                 
  local pseudopotential read in
  partial core-charges read in
  partial kinetic energy density read in
  atomic valenz-charges read in
  non local Contribution for L=           0  read in
    real space projection operators read in
  non local Contribution for L=           0  read in
    real space projection operators read in
  non local Contribution for L=           1  read in
    real space projection operators read in
  non local Contribution for L=           1  read in
    real space projection operators read in
    PAW grid and wavefunctions read in
 
   number of l-projection  operators is LMAX  =           4
   number of lm-projection operators is LMMAX =           8
 
 -----------------------------------------------------------------------------
|                                                                             |
|               ----> ADVICE to this user running VASP <----                  |
|                                                                             |
|     You have a (more or less) 'large supercell' and for larger cells it     |
|     might be more efficient to use real-space projection operators.         |
|     Therefore, try LREAL= Auto in the INCAR file.                           |
|     Mind: For very accurate calculation, you might also keep the            |
|     reciprocal projection scheme (i.e. LREAL=.FALSE.).                      |
|                                                                             |
 -----------------------------------------------------------------------------

  PAW_PBE C 08Apr2002                   :
 energy of atom  1       EATOM= -147.1560
 kinetic energy error for atom=    0.0288 (will be added to EATOM!!)
  PAW_PBE H 15Jun2001                   :
 energy of atom  2       EATOM=  -12.4884
 kinetic energy error for atom=    0.0098 (will be added to EATOM!!)
  PAW_PBE N 08Apr2002                   :
 energy of atom  3       EATOM= -264.5486
 kinetic energy error for atom=    0.0736 (will be added to EATOM!!)
 
 
 POSCAR:  C  H  N
  positions in cartesian coordinates
  No initial velocities read in
 exchange correlation table for  LEXCH =        8
   RHO(1)=    0.500       N(1)  =     2000
   RHO(2)=  100.500       N(2)  =     4000

 VTST: version 4.1, (05/19/21)

 CHAIN: initializing optimizer
 
 OPT: Using VASP QUASI-newton optimizer
 CHAIN: Read ICHAIN            0
 CHAIN: Running the NEB
 NEB:          SPRING     -5.000000
 NEB:          LCLIMB      T
 NEB:     LTANGENTOLD      F
 NEB:           LDNEB      F
 NEB:        LDNEBORG      F
 NEB:        LNEBCELL      F
 NEB:          EFIRST      0.000000
 NEB:           ELAST      0.000000
 
 POSCAR:  C  H  N
  positions in cartesian coordinates
  No initial velocities read in
 
 POSCAR:  C  H  N
  positions in cartesian coordinates
  No initial velocities read in
 
 POSCAR:  C  H  N
  positions in cartesian coordinates
  No initial velocities read in
 
 POSCAR:  C  H  N
  positions in cartesian coordinates
  No initial velocities read in
 


--------------------------------------------------------------------------------------------------------


 ion  position               nearest neighbor table
   1  0.339  0.440  0.569-   8 1.09   2 1.34   4 1.49
   2  0.337  0.526  0.574-  11 1.09   1 1.34   3 1.49
   3  0.415  0.582  0.557-  13 1.10  12 1.10   2 1.49   6 1.54
   4  0.417  0.390  0.538-   9 1.10  10 1.10   1 1.49   5 1.53
   5  0.499  0.446  0.533-  15 1.09  14 1.10   6 1.52   4 1.53
   6  0.478  0.535  0.495-  16 1.09   7 1.45   5 1.52   3 1.54
   7  0.556  0.586  0.481-  17 1.17   6 1.45
   8  0.282  0.402  0.584-   1 1.09
   9  0.428  0.333  0.580-   4 1.10
  10  0.405  0.363  0.473-   4 1.10
  11  0.278  0.559  0.593-   2 1.09
  12  0.451  0.595  0.616-   3 1.10
  13  0.396  0.645  0.531-   3 1.10
  14  0.549  0.413  0.494-   5 1.10
  15  0.527  0.455  0.598-   5 1.09
  16  0.447  0.526  0.432-   6 1.09
  17  0.620  0.626  0.472-   7 1.17
 
  LATTYP: Found a simple cubic cell.
 ALAT       =    15.4022502899
  
  Lattice vectors:
  
 A1 = (  15.4022502899,   0.0000000000,   0.0000000000)
 A2 = (   0.0000000000,  15.4022502899,   0.0000000000)
 A3 = (   0.0000000000,   0.0000000000,  15.4022502899)


Analysis of symmetry for initial positions (statically):
=====================================================================
 Subroutine PRICEL returns:
 Original cell was already a primitive cell.
 

 Routine SETGRP: Setting up the symmetry group for a 
 simple cubic supercell.


 Subroutine GETGRP returns: Found  1 space group operations
 (whereof  1 operations were pure point group operations)
 out of a pool of 48 trial point group operations.


The static configuration has the point symmetry C_1 .


Analysis of symmetry for dynamics (positions and initial velocities):
=====================================================================
 Subroutine PRICEL returns:
 Original cell was already a primitive cell.
 

 Routine SETGRP: Setting up the symmetry group for a 
 simple cubic supercell.


 Subroutine GETGRP returns: Found  1 space group operations
 (whereof  1 operations were pure point group operations)
 out of a pool of 48 trial point group operations.


The dynamic configuration has the point symmetry C_1 .


 Subroutine INISYM returns: Found  1 space group operations
 (whereof  1 operations are pure point group operations),
 and found     1 'primitive' translations


----------------------------------------------------------------------------------------

                                     Primitive cell                                     

  volume of cell :    3653.8653

  direct lattice vectors                    reciprocal lattice vectors
    15.402250290  0.000000000  0.000000000     0.064925578  0.000000000  0.000000000
     0.000000000 15.402250290  0.000000000     0.000000000  0.064925578  0.000000000
     0.000000000  0.000000000 15.402250290     0.000000000  0.000000000  0.064925578

  length of vectors
    15.402250290 15.402250290 15.402250290     0.064925578  0.064925578  0.064925578

  position of ions in fractional coordinates (direct lattice)
     0.339451372  0.439623295  0.568734539
     0.337386731  0.526442630  0.573691274
     0.414991893  0.581579658  0.556562099
     0.416758093  0.390235704  0.538030542
     0.499452387  0.445618214  0.533089983
     0.478223306  0.534659754  0.495403013
     0.556273519  0.585672905  0.481401428
     0.281523049  0.402013478  0.583720507
     0.427930150  0.333414810  0.579577940
     0.405009624  0.363155495  0.473156702
     0.277633134  0.558927465  0.592931444
     0.451306822  0.595434934  0.616223018
     0.396340883  0.645163203  0.530735100
     0.549281336  0.412786396  0.494444401
     0.526719803  0.455385991  0.597668595
     0.446533579  0.525697887  0.432436080
     0.619606604  0.626136369  0.472320785

  ion indices of the primitive-cell ions
   primitive index   ion index
                 1           1
                 2           2
                 3           3
                 4           4
                 5           5
                 6           6
                 7           7
                 8           8
                 9           9
                10          10
                11          11
                12          12
                13          13
                14          14
                15          15
                16          16
                17          17

----------------------------------------------------------------------------------------

 
 
 KPOINTS: KPOINTS created by Atomic Simulation Env

Automatic generation of k-mesh.
 Grid dimensions read from file:
 generate k-points for:    1    1    1

 Generating k-lattice:

  Cartesian coordinates                     Fractional coordinates (reciprocal lattice)
     0.064925578  0.000000000  0.000000000     1.000000000  0.000000000  0.000000000
     0.000000000  0.064925578  0.000000000     0.000000000  1.000000000  0.000000000
     0.000000000  0.000000000  0.064925578     0.000000000  0.000000000  1.000000000

  Length of vectors
     0.064925578  0.064925578  0.064925578

  Shift w.r.t. Gamma in fractional coordinates (k-lattice)
     0.000000000  0.000000000  0.000000000

 
 Subroutine IBZKPT returns following result:
 ===========================================
 
 Found      1 irreducible k-points:
 
 Following reciprocal coordinates:
            Coordinates               Weight
  0.000000  0.000000  0.000000      1.000000
 
 Following cartesian coordinates:
            Coordinates               Weight
  0.000000  0.000000  0.000000      1.000000
 


--------------------------------------------------------------------------------------------------------




 Dimension of arrays:
   k-points           NKPTS =      1   k-points in BZ     NKDIM =      1   number of bands    NBANDS=     30
   number of dos      NEDOS =    301   number of ions     NIONS =     17
   non local maximal  LDIM  =      4   non local SUM 2l+1 LMDIM =      8
   total plane-waves  NPLWV = 512000
   max r-space proj   IRMAX =      1   max aug-charges    IRDMAX=   1924
   dimension x,y,z NGX =    80 NGY =   80 NGZ =   80
   dimension x,y,z NGXF=   160 NGYF=  160 NGZF=  160
   support grid    NGXF=   160 NGYF=  160 NGZF=  160
   ions per type =               7   9   1
   NGX,Y,Z   is equivalent  to a cutoff of   8.63,  8.63,  8.63 a.u.
   NGXF,Y,Z  is equivalent  to a cutoff of  17.27, 17.27, 17.27 a.u.

 SYSTEM =  unknown system                          
 POSCAR =   C  H  N                                

 Startparameter for this run:
   NWRITE =      2    write-flag & timer
   PREC   = normal    normal or accurate (medium, high low for compatibility)
   ISTART =      0    job   : 0-new  1-cont  2-samecut
   ICHARG =      2    charge: 1-file 2-atom 10-const
   ISPIN  =      1    spin polarized calculation?
   LNONCOLLINEAR =      F non collinear calculations
   LSORBIT =      F    spin-orbit coupling
   INIWAV =      1    electr: 0-lowe 1-rand  2-diag
   LASPH  =      F    aspherical Exc in radial PAW
 Electronic Relaxation 1
   ENCUT  =  400.0 eV  29.40 Ry    5.42 a.u.  25.12 25.12 25.12*2*pi/ulx,y,z
   ENINI  =  400.0     initial cutoff
   ENAUG  =  644.9 eV  augmentation charge cutoff
   NELM   =     60;   NELMIN=  2; NELMDL= -5     # of ELM steps 
   EDIFF  = 0.1E-04   stopping-criterion for ELM
   LREAL  =      F    real-space projection
   NLSPLINE    = F    spline interpolate recip. space projectors
   LCOMPAT=      F    compatible to vasp.4.4
   GGA_COMPAT  = T    GGA compatible to vasp.4.4-vasp.4.6
   LMAXPAW     = -100 max onsite density
   LMAXMIX     =    2 max onsite mixed and CHGCAR
   VOSKOWN=      0    Vosko Wilk Nusair interpolation
   ROPT   =    0.00000   0.00000   0.00000
 Ionic relaxation
   EDIFFG = -.5E-01   stopping-criterion for IOM
   NSW    =   5000    number of steps for IOM
   NBLOCK =      1;   KBLOCK =   5000    inner block; outer block 
   IBRION =      1    ionic relax: 0-MD 1-quasi-New 2-CG
   NFREE  =      0    steps in history (QN), initial steepest desc. (CG)
   ISIF   =      2    stress and relaxation
   IWAVPR =     11    prediction:  0-non 1-charg 2-wave 3-comb
   ISYM   =      2    0-nonsym 1-usesym 2-fastsym
   LCORR  =      T    Harris-Foulkes like correction to forces

   POTIM  = 0.1000    time-step for ionic-motion
   TEIN   =    0.0    initial temperature
   TEBEG  =    0.0;   TEEND  =   0.0 temperature during run
   SMASS  =  -3.00    Nose mass-parameter (am)
   estimated Nose-frequenzy (Omega)   =  0.10E-29 period in steps = 0.63E+47 mass=  -0.542E-26a.u.
   SCALEE = 1.0000    scale energy and forces
   NPACO  =    256;   APACO  = 10.0  distance and # of slots for P.C.
   PSTRESS=    0.0 pullay stress

  Mass of Ions in am
   POMASS =  12.01  1.00 14.00
  Ionic Valenz
   ZVAL   =   4.00  1.00  5.00
  Atomic Wigner-Seitz radii
   RWIGS  =  -1.00 -1.00 -1.00
  virtual crystal weights 
   VCA    =   1.00  1.00  1.00
   NELECT =      42.0000    total number of electrons
   NUPDOWN=      -1.0000    fix difference up-down

 DOS related values:
   EMIN   =  10.00;   EMAX   =-10.00  energy-range for DOS
   EFERMI =   0.00
   ISMEAR =     0;   SIGMA  =   0.05  broadening in eV -4-tet -1-fermi 0-gaus

 Electronic relaxation 2 (details)
   IALGO  =     68    algorithm
   LDIAG  =      T    sub-space diagonalisation (order eigenvalues)
   LSUBROT=      F    optimize rotation matrix (better conditioning)
   TURBO    =      0    0=normal 1=particle mesh
   IRESTART =      0    0=no restart 2=restart with 2 vectors
   NREBOOT  =      0    no. of reboots
   NMIN     =      0    reboot dimension
   EREF     =   0.00    reference energy to select bands
   IMIX   =      4    mixing-type and parameters
     AMIX     =   0.40;   BMIX     =  1.00
     AMIX_MAG =   1.60;   BMIX_MAG =  1.00
     AMIN     =   0.10
     WC   =   100.;   INIMIX=   1;  MIXPRE=   1;  MAXMIX= -45

 Intra band minimization:
   WEIMIN = 0.0010     energy-eigenvalue tresh-hold
   EBREAK =  0.83E-07  absolut break condition
   DEPER  =   0.30     relativ break condition  

   TIME   =   0.40     timestep for ELM

  volume/ion in A,a.u.               =     214.93      1450.44
  Fermi-wavevector in a.u.,A,eV,Ry     =   0.369465  0.698188  1.857259  0.136505
  Thomas-Fermi vector in A             =   1.296107
 
 Write flags
   LWAVE        =      F    write WAVECAR
   LDOWNSAMPLE  =      F    k-point downsampling of WAVECAR
   LCHARG       =      F    write CHGCAR
   LVTOT        =      F    write LOCPOT, total local potential
   LVHAR        =      F    write LOCPOT, Hartree potential only
   LELF         =      F    write electronic localiz. function (ELF)
   LORBIT       =      0    0 simple, 1 ext, 2 COOP (PROOUT), +10 PAW based schemes


 Dipole corrections
   LMONO  =      F    monopole corrections only (constant potential shift)
   LDIPOL =      F    correct potential (dipole corrections)
   IDIPOL =      0    1-x, 2-y, 3-z, 4-all directions 
   EPSILON=  1.0000000 bulk dielectric constant

 Exchange correlation treatment:
   GGA     =    PE    GGA type
   LEXCH   =     8    internal setting for exchange type
   LIBXC   =     F    Libxc                    
   VOSKOWN =     0    Vosko Wilk Nusair interpolation
   LHFCALC =     F    Hartree Fock is set to
   LHFONE  =     F    Hartree Fock one center treatment
   AEXX    =    0.0000 exact exchange contribution

 Linear response parameters
   LEPSILON=     F    determine dielectric tensor
   LRPA    =     F    only Hartree local field effects (RPA)
   LNABLA  =     F    use nabla operator in PAW spheres
   LVEL    =     F    velocity operator in full k-point grid
   CSHIFT  =0.1000    complex shift for real part using Kramers Kronig
   OMEGAMAX=  -1.0    maximum frequency
   DEG_THRESHOLD= 0.2000000E-02 threshold for treating states as degnerate
   RTIME   =   -0.100 relaxation time in fs
  (WPLASMAI=    0.000 imaginary part of plasma frequency in eV, 0.658/RTIME)
   DFIELD  = 0.0000000 0.0000000 0.0000000 field for delta impulse in time
 
  Optional k-point grid parameters
   LKPOINTS_OPT  =     F    use optional k-point grid
   KPOINTS_OPT_MODE=     1    mode for optional k-point grid
 
 Orbital magnetization related:
   ORBITALMAG=     F  switch on orbital magnetization
   LCHIMAG   =     F  perturbation theory with respect to B field
   DQ        =  0.001000  dq finite difference perturbation B field
   LLRAUG    =     F  two centre corrections for induced B field



--------------------------------------------------------------------------------------------------------


 quasi-Newton-method for relaxation of ions
 charge density and potential will be updated during run
 non-spin polarized calculation
 RMM-DIIS sequential band-by-band and
  variant of blocked Davidson during initial phase
 perform sub-space diagonalisation
    before iterative eigenvector-optimisation
 modified Broyden-mixing scheme, WC =      100.0
 initial mixing is a Kerker type mixing with AMIX =  0.4000 and BMIX =      1.0000
 Hartree-type preconditioning will be used
 using additional bands            9
 reciprocal scheme for non local part
 use partial core corrections
 calculate Harris-corrections to forces 
   (improved forces if not selfconsistent)
 use gradient corrections 
 use of overlap-Matrix (Vanderbilt PP)
 Gauss-broadening in eV      SIGMA  =   0.05


--------------------------------------------------------------------------------------------------------


  energy-cutoff  :      400.00
  volume of cell :     3653.87
      direct lattice vectors                 reciprocal lattice vectors
    15.402250290  0.000000000  0.000000000     0.064925578  0.000000000  0.000000000
     0.000000000 15.402250290  0.000000000     0.000000000  0.064925578  0.000000000
     0.000000000  0.000000000 15.402250290     0.000000000  0.000000000  0.064925578

  length of vectors
    15.402250290 15.402250290 15.402250290     0.064925578  0.064925578  0.064925578


 
 k-points in units of 2pi/SCALE and weight: KPOINTS created by Atomic Simulation Env
   0.00000000  0.00000000  0.00000000       1.000
 
 k-points in reciprocal lattice and weights: KPOINTS created by Atomic Simulation Env
   0.00000000  0.00000000  0.00000000       1.000
 
 position of ions in fractional coordinates (direct lattice) 
   0.33945137  0.43962330  0.56873454
   0.33738673  0.52644263  0.57369127
   0.41499189  0.58157966  0.55656210
   0.41675809  0.39023570  0.53803054
   0.49945239  0.44561821  0.53308998
   0.47822331  0.53465975  0.49540301
   0.55627352  0.58567291  0.48140143
   0.28152305  0.40201348  0.58372051
   0.42793015  0.33341481  0.57957794
   0.40500962  0.36315550  0.47315670
   0.27763313  0.55892747  0.59293144
   0.45130682  0.59543493  0.61622302
   0.39634088  0.64516320  0.53073510
   0.54928134  0.41278640  0.49444440
   0.52671980  0.45538599  0.59766860
   0.44653358  0.52569789  0.43243608
   0.61960660  0.62613637  0.47232078
 
 position of ions in cartesian coordinates  (Angst):
   5.22831499  6.77118802  8.75979172
   5.19651488  8.10840115  8.83613659
   6.39180901  8.95763546  8.57230874
   6.41901246  6.01050799  8.28688108
   7.69269067  6.86352327  8.21078535
   7.36571505  8.23496336  7.63032120
   8.56786397  9.02068067  7.41466529
   4.33608846  6.19191221  8.99060935
   6.59108728  5.13533835  8.92680449
   6.23805959  5.59341183  7.28767795
   4.27617501  8.60874071  9.13247851
   6.95114062  9.17103789  9.49122115
   6.10454148  9.93696514  8.17451485
   8.46016862  6.35783938  7.61555642
   8.11267024  7.01396901  9.20544130
   6.87762195  8.09693044  6.66048873
   9.54333599  9.64390907  7.27480295
 


--------------------------------------------------------------------------------------------------------


 use serial FFT for orbitals x direction half grid
 k-point   1 :   0.0000 0.0000 0.0000  plane waves:   33270

 maximum and minimum number of plane-waves per node :     33270    33270

 maximum number of plane-waves:     33270
 maximum index in each direction: 
   IXMAX=   25   IYMAX=   25   IZMAX=   25
   IXMIN=    0   IYMIN=  -25   IZMIN=  -25


 serial   3D FFT for wavefunctions
 parallel 3D FFT for charge:
    minimum data exchange during FFTs selected (reduces bandwidth)


 total amount of memory used by VASP MPI-rank0   277942. kBytes
=======================================================================

   base      :      30000. kBytes
   nonl-proj :      15437. kBytes
   fftplans  :      71598. kBytes
   grid      :     152883. kBytes
   one-center:         26. kBytes
   wavefun   :       7998. kBytes
 
     INWAV:  cpu time      0.0000: real time      0.0000
 Broyden mixing: mesh for mixing (old mesh)
   NGX = 51   NGY = 51   NGZ = 51
  (NGX  =160   NGY  =160   NGZ  =160)
  gives a total of 132651 points

 initial charge density was supplied:
 charge density of overlapping atoms calculated
 number of electron      42.0000000 magnetization 
 keeping initial charge density in first step


--------------------------------------------------------------------------------------------------------


 Maximum index for augmentation-charges          832 (set IRDMAX)


--------------------------------------------------------------------------------------------------------


 First call to EWALD:  gamma=   0.115
 Maximum number of real-space cells 3x 3x 3
 Maximum number of reciprocal cells 3x 3x 3

    FEWALD:  cpu time      0.0012: real time      0.0012


--------------------------------------- Iteration      1(   1)  ---------------------------------------


    POTLOK:  cpu time      2.1174: real time      2.1176
    SETDIJ:  cpu time      0.0187: real time      0.0187
     EDDAV:  cpu time      3.6197: real time      3.6221
       DOS:  cpu time      0.0004: real time      0.0005
    --------------------------------------------
      LOOP:  cpu time      5.7563: real time      5.7588

 eigenvalue-minimisations  :    76
 total energy-change (2. order) : 0.3401215E+03  (-0.1014696E+04)
 number of electron      42.0000000 magnetization 
 augmentation part       42.0000000 magnetization 

 Free energy of the ion-electron system (eV)
  ---------------------------------------------------
  alpha Z        PSCENC =         2.15216506
  Ewald energy   TEWEN  =      2584.85016000
  -Hartree energ DENC   =     -3520.39193168
  -exchange      EXHF   =         0.00000000
  -V(xc)+E(xc)   XCENC  =       131.54653116
  PAW double counting   =       983.79330320     -989.05002801
  entropy T*S    EENTRO =        -0.03613724
  eigenvalues    EBANDS =      -259.41579864
  atomic energy  EATOM  =      1406.67326350
  Solvation  Ediel_sol  =         0.00000000
  ---------------------------------------------------
  free energy    TOTEN  =       340.12152735 eV

  energy without entropy =      340.15766459  energy(sigma->0) =      340.13959597


--------------------------------------------------------------------------------------------------------




--------------------------------------- Iteration      1(   2)  ---------------------------------------


     EDDAV:  cpu time      4.0512: real time      4.0514
       DOS:  cpu time      0.0003: real time      0.0088
    --------------------------------------------
      LOOP:  cpu time      4.0515: real time      4.0602

 eigenvalue-minimisations  :    88
 total energy-change (2. order) :-0.2615647E+03  (-0.2466554E+03)
 number of electron      42.0000000 magnetization 
 augmentation part       42.0000000 magnetization 

 Free energy of the ion-electron system (eV)
  ---------------------------------------------------
  alpha Z        PSCENC =         2.15216506
  Ewald energy   TEWEN  =      2584.85016000
  -Hartree energ DENC   =     -3520.39193168
  -exchange      EXHF   =         0.00000000
  -V(xc)+E(xc)   XCENC  =       131.54653116
  PAW double counting   =       983.79330320     -989.05002801
  entropy T*S    EENTRO =        -0.00000000
  eigenvalues    EBANDS =      -521.01658649
  atomic energy  EATOM  =      1406.67326350
  Solvation  Ediel_sol  =         0.00000000
  ---------------------------------------------------
  free energy    TOTEN  =        78.55687674 eV

  energy without entropy =       78.55687674  energy(sigma->0) =       78.55687674


--------------------------------------------------------------------------------------------------------




--------------------------------------- Iteration      1(   3)  ---------------------------------------


     EDDAV:  cpu time      3.8978: real time      3.8986
       DOS:  cpu time      0.0011: real time      0.0011
    --------------------------------------------
      LOOP:  cpu time      3.8989: real time      3.8998

 eigenvalue-minimisations  :    80
 total energy-change (2. order) :-0.1697824E+03  (-0.1692339E+03)
 number of electron      42.0000000 magnetization 
 augmentation part       42.0000000 magnetization 

 Free energy of the ion-electron system (eV)
  ---------------------------------------------------
  alpha Z        PSCENC =         2.15216506
  Ewald energy   TEWEN  =      2584.85016000
  -Hartree energ DENC   =     -3520.39193168
  -exchange      EXHF   =         0.00000000
  -V(xc)+E(xc)   XCENC  =       131.54653116
  PAW double counting   =       983.79330320     -989.05002801
  entropy T*S    EENTRO =        -0.00000000
  eigenvalues    EBANDS =      -690.79898103
  atomic energy  EATOM  =      1406.67326350
  Solvation  Ediel_sol  =         0.00000000
  ---------------------------------------------------
  free energy    TOTEN  =       -91.22551779 eV

  energy without entropy =      -91.22551779  energy(sigma->0) =      -91.22551779


--------------------------------------------------------------------------------------------------------




--------------------------------------- Iteration      1(   4)  ---------------------------------------


     EDDAV:  cpu time      4.2335: real time      4.2339
       DOS:  cpu time      0.0003: real time      0.0003
    --------------------------------------------
      LOOP:  cpu time      4.2337: real time      4.2342

 eigenvalue-minimisations  :    88
 total energy-change (2. order) :-0.2274357E+02  (-0.2271342E+02)
 number of electron      42.0000000 magnetization 
 augmentation part       42.0000000 magnetization 

 Free energy of the ion-electron system (eV)
  ---------------------------------------------------
  alpha Z        PSCENC =         2.15216506
  Ewald energy   TEWEN  =      2584.85016000
  -Hartree energ DENC   =     -3520.39193168
  -exchange      EXHF   =         0.00000000
  -V(xc)+E(xc)   XCENC  =       131.54653116
  PAW double counting   =       983.79330320     -989.05002801
  entropy T*S    EENTRO =        -0.00000000
  eigenvalues    EBANDS =      -713.54255061
  atomic energy  EATOM  =      1406.67326350
  Solvation  Ediel_sol  =         0.00000000
  ---------------------------------------------------
  free energy    TOTEN  =      -113.96908738 eV

  energy without entropy =     -113.96908738  energy(sigma->0) =     -113.96908738


--------------------------------------------------------------------------------------------------------




--------------------------------------- Iteration      1(   5)  ---------------------------------------


     EDDAV:  cpu time      3.9625: real time      3.9628
       DOS:  cpu time      0.0004: real time      0.0089
    CHARGE:  cpu time      0.3863: real time      0.3863
    MIXING:  cpu time      0.0811: real time      0.0811
    --------------------------------------------
      LOOP:  cpu time      4.4304: real time      4.4392

 eigenvalue-minimisations  :    80
 total energy-change (2. order) :-0.3261782E+00  (-0.3247473E+00)
 number of electron      42.0000011 magnetization 
 augmentation part        1.2123266 magnetization 

 Broyden mixing:
  rms(total) = 0.16954E+01    rms(broyden)= 0.16949E+01
  rms(prec ) = 0.19580E+01
  weight for this iteration     100.00

 Free energy of the ion-electron system (eV)
  ---------------------------------------------------
  alpha Z        PSCENC =         2.15216506
  Ewald energy   TEWEN  =      2584.85016000
  -Hartree energ DENC   =     -3520.39193168
  -exchange      EXHF   =         0.00000000
  -V(xc)+E(xc)   XCENC  =       131.54653116
  PAW double counting   =       983.79330320     -989.05002801
  entropy T*S    EENTRO =        -0.00000000
  eigenvalues    EBANDS =      -713.86872883
  atomic energy  EATOM  =      1406.67326350
  Solvation  Ediel_sol  =         0.00000000
  ---------------------------------------------------
  free energy    TOTEN  =      -114.29526559 eV

  energy without entropy =     -114.29526559  energy(sigma->0) =     -114.29526559


--------------------------------------------------------------------------------------------------------




--------------------------------------- Iteration      1(   6)  ---------------------------------------


    POTLOK:  cpu time      2.1491: real time      2.1493
    SETDIJ:  cpu time      0.0054: real time      0.0054
    EDDIAG:  cpu time      0.6099: real time      0.6100
  RMM-DIIS:  cpu time      2.9831: real time      2.9837
    ORTHCH:  cpu time      0.0199: real time      0.0199
       DOS:  cpu time      0.0002: real time      0.0002
    CHARGE:  cpu time      0.3856: real time      0.3856
    MIXING:  cpu time      0.0864: real time      0.0864
    --------------------------------------------
      LOOP:  cpu time      6.2397: real time      6.2405

 eigenvalue-minimisations  :    60
 total energy-change (2. order) : 0.8438573E+01  (-0.1155700E+01)
 number of electron      42.0000011 magnetization 
 augmentation part        1.1205989 magnetization 

 Broyden mixing:
  rms(total) = 0.92281E+00    rms(broyden)= 0.92272E+00
  rms(prec ) = 0.10472E+01
  weight for this iteration     100.00

 eigenvalues of (default mixing * dielectric matrix)
  average eigenvalue GAMMA=   1.6865
  1.6865

 Free energy of the ion-electron system (eV)
  ---------------------------------------------------
  alpha Z        PSCENC =         2.15216506
  Ewald energy   TEWEN  =      2584.85016000
  -Hartree energ DENC   =     -3603.84899771
  -exchange      EXHF   =         0.00000000
  -V(xc)+E(xc)   XCENC  =       135.62623320
  PAW double counting   =      1780.16706865    -1786.22928151
  entropy T*S    EENTRO =        -0.00000000
  eigenvalues    EBANDS =      -625.24730381
  atomic energy  EATOM  =      1406.67326350
  Solvation  Ediel_sol  =         0.00000000
  ---------------------------------------------------
  free energy    TOTEN  =      -105.85669261 eV

  energy without entropy =     -105.85669261  energy(sigma->0) =     -105.85669261


--------------------------------------------------------------------------------------------------------




--------------------------------------- Iteration      1(   7)  ---------------------------------------


    POTLOK:  cpu time      2.3267: real time      2.3268
    SETDIJ:  cpu time      0.0138: real time      0.0138
    EDDIAG:  cpu time      0.6360: real time      0.6361
  RMM-DIIS:  cpu time      3.2315: real time      3.2317
    ORTHCH:  cpu time      0.0208: real time      0.0293
       DOS:  cpu time      0.0002: real time      0.0002
    CHARGE:  cpu time      0.3156: real time      0.3156
    MIXING:  cpu time      0.0767: real time      0.0767
    --------------------------------------------
      LOOP:  cpu time      6.6214: real time      6.6303

 eigenvalue-minimisations  :    60
 total energy-change (2. order) : 0.2081625E+01  (-0.1074056E+01)
 number of electron      42.0000008 magnetization 
 augmentation part        1.0633468 magnetization 

 Broyden mixing:
  rms(total) = 0.39281E+00    rms(broyden)= 0.39261E+00
  rms(prec ) = 0.42752E+00
  weight for this iteration     100.00

 eigenvalues of (default mixing * dielectric matrix)
  average eigenvalue GAMMA=   1.4442
  1.0354  1.8530

 Free energy of the ion-electron system (eV)
  ---------------------------------------------------
  alpha Z        PSCENC =         2.15216506
  Ewald energy   TEWEN  =      2584.85016000
  -Hartree energ DENC   =     -3679.34832495
  -exchange      EXHF   =         0.00000000
  -V(xc)+E(xc)   XCENC  =       139.43232896
  PAW double counting   =      2850.83369438    -2857.39475772
  entropy T*S    EENTRO =        -0.00000000
  eigenvalues    EBANDS =      -550.97359690
  atomic energy  EATOM  =      1406.67326350
  Solvation  Ediel_sol  =         0.00000000
  ---------------------------------------------------
  free energy    TOTEN  =      -103.77506766 eV

  energy without entropy =     -103.77506766  energy(sigma->0) =     -103.77506766


--------------------------------------------------------------------------------------------------------




--------------------------------------- Iteration      1(   8)  ---------------------------------------


    POTLOK:  cpu time      2.1324: real time      2.1410
    SETDIJ:  cpu time      0.0305: real time      0.0305
    EDDIAG:  cpu time      0.6027: real time      0.6028
  RMM-DIIS:  cpu time      3.0419: real time      3.0421
    ORTHCH:  cpu time      0.0227: real time      0.0228
       DOS:  cpu time      0.0002: real time      0.0002
    CHARGE:  cpu time      0.3731: real time      0.3731
    MIXING:  cpu time      0.0829: real time      0.0829
    --------------------------------------------
      LOOP:  cpu time      6.2864: real time      6.2956

 eigenvalue-minimisations  :    60
 total energy-change (2. order) : 0.1739902E+00  (-0.6871818E-01)
 number of electron      42.0000009 magnetization 
 augmentation part        1.0528836 magnetization 

 Broyden mixing:
  rms(total) = 0.23538E+00    rms(broyden)= 0.23535E+00
  rms(prec ) = 0.25896E+00
  weight for this iteration     100.00

 eigenvalues of (default mixing * dielectric matrix)
  average eigenvalue GAMMA=   1.7928
  2.7383  0.8267  1.8133

 Free energy of the ion-electron system (eV)
  ---------------------------------------------------
  alpha Z        PSCENC =         2.15216506
  Ewald energy   TEWEN  =      2584.85016000
  -Hartree energ DENC   =     -3689.08454583
  -exchange      EXHF   =         0.00000000
  -V(xc)+E(xc)   XCENC  =       140.10978531
  PAW double counting   =      3174.15065068    -3180.64448763
  entropy T*S    EENTRO =        -0.00000000
  eigenvalues    EBANDS =      -541.80806857
  atomic energy  EATOM  =      1406.67326350
  Solvation  Ediel_sol  =         0.00000000
  ---------------------------------------------------
  free energy    TOTEN  =      -103.60107749 eV

  energy without entropy =     -103.60107749  energy(sigma->0) =     -103.60107749


--------------------------------------------------------------------------------------------------------




--------------------------------------- Iteration      1(   9)  ---------------------------------------


    POTLOK:  cpu time      2.3107: real time      2.3202
    SETDIJ:  cpu time      0.0058: real time      0.0058
    EDDIAG:  cpu time      0.6420: real time      0.6420
  RMM-DIIS:  cpu time      3.2213: real time      3.2218
    ORTHCH:  cpu time      0.0286: real time      0.0287
       DOS:  cpu time      0.0002: real time      0.0002
    CHARGE:  cpu time      0.4381: real time      0.4384
    MIXING:  cpu time      0.0749: real time      0.0749
    --------------------------------------------
      LOOP:  cpu time      6.7215: real time      6.7319

 eigenvalue-minimisations  :    60
 total energy-change (2. order) : 0.1003172E+00  (-0.4560291E-01)
 number of electron      42.0000009 magnetization 
 augmentation part        1.0514110 magnetization 

 Broyden mixing:
  rms(total) = 0.67739E-01    rms(broyden)= 0.67728E-01
  rms(prec ) = 0.89448E-01
  weight for this iteration     100.00

 eigenvalues of (default mixing * dielectric matrix)
  average eigenvalue GAMMA=   1.4787
  2.3234  1.7297  0.9309  0.9309

 Free energy of the ion-electron system (eV)
  ---------------------------------------------------
  alpha Z        PSCENC =         2.15216506
  Ewald energy   TEWEN  =      2584.85016000
  -Hartree energ DENC   =     -3699.79027844
  -exchange      EXHF   =         0.00000000
  -V(xc)+E(xc)   XCENC  =       140.81343473
  PAW double counting   =      3606.37171469    -3612.68802515
  entropy T*S    EENTRO =        -0.00000000
  eigenvalues    EBANDS =      -531.88319471
  atomic energy  EATOM  =      1406.67326350
  Solvation  Ediel_sol  =         0.00000000
  ---------------------------------------------------
  free energy    TOTEN  =      -103.50076033 eV

  energy without entropy =     -103.50076033  energy(sigma->0) =     -103.50076033


--------------------------------------------------------------------------------------------------------




--------------------------------------- Iteration      1(  10)  ---------------------------------------


    POTLOK:  cpu time      2.3251: real time      2.3256
    SETDIJ:  cpu time      0.0058: real time      0.0058
    EDDIAG:  cpu time      0.6270: real time      0.6273
  RMM-DIIS:  cpu time      3.4857: real time      3.4865
    ORTHCH:  cpu time      0.0242: real time      0.0569
       DOS:  cpu time      0.0003: real time      0.0003
    CHARGE:  cpu time      0.2959: real time      0.2959
    MIXING:  cpu time      0.0873: real time      0.0873
    --------------------------------------------
      LOOP:  cpu time      6.8513: real time      6.8855

 eigenvalue-minimisations  :    63
 total energy-change (2. order) : 0.3262970E-02  (-0.7385537E-02)
 number of electron      42.0000008 magnetization 
 augmentation part        1.0491575 magnetization 

 Broyden mixing:
  rms(total) = 0.33080E-01    rms(broyden)= 0.33074E-01
  rms(prec ) = 0.56579E-01
  weight for this iteration     100.00

 eigenvalues of (default mixing * dielectric matrix)
  average eigenvalue GAMMA=   1.5988
  2.2615  2.2615  1.5723  1.0343  0.8643

 Free energy of the ion-electron system (eV)
  ---------------------------------------------------
  alpha Z        PSCENC =         2.15216506
  Ewald energy   TEWEN  =      2584.85016000
  -Hartree energ DENC   =     -3701.97104557
  -exchange      EXHF   =         0.00000000
  -V(xc)+E(xc)   XCENC  =       140.78977473
  PAW double counting   =      3549.90265705    -3556.25295114
  entropy T*S    EENTRO =        -0.00000000
  eigenvalues    EBANDS =      -529.64152099
  atomic energy  EATOM  =      1406.67326350
  Solvation  Ediel_sol  =         0.00000000
  ---------------------------------------------------
  free energy    TOTEN  =      -103.49749736 eV

  energy without entropy =     -103.49749736  energy(sigma->0) =     -103.49749736


--------------------------------------------------------------------------------------------------------




--------------------------------------- Iteration      1(  11)  ---------------------------------------


    POTLOK:  cpu time      2.2069: real time      2.2072
    SETDIJ:  cpu time      0.0115: real time      0.0115
    EDDIAG:  cpu time      0.6107: real time      0.6108
  RMM-DIIS:  cpu time      3.2294: real time      3.2301
    ORTHCH:  cpu time      0.0278: real time      0.0280
       DOS:  cpu time      0.0003: real time      0.0003
    CHARGE:  cpu time      0.4077: real time      0.4077
    MIXING:  cpu time      0.0784: real time      0.0784
    --------------------------------------------
      LOOP:  cpu time      6.5727: real time      6.5740

 eigenvalue-minimisations  :    60
 total energy-change (2. order) :-0.1101113E-01  (-0.1285266E-01)
 number of electron      42.0000008 magnetization 
 augmentation part        1.0470307 magnetization 

 Broyden mixing:
  rms(total) = 0.42875E-01    rms(broyden)= 0.42869E-01
  rms(prec ) = 0.54398E-01
  weight for this iteration     100.00

 eigenvalues of (default mixing * dielectric matrix)
  average eigenvalue GAMMA=   1.5067
  2.4150  2.4150  1.2759  1.2759  0.8483  0.8104

 Free energy of the ion-electron system (eV)
  ---------------------------------------------------
  alpha Z        PSCENC =         2.15216506
  Ewald energy   TEWEN  =      2584.85016000
  -Hartree energ DENC   =     -3710.73545290
  -exchange      EXHF   =         0.00000000
  -V(xc)+E(xc)   XCENC  =       140.84745517
  PAW double counting   =      3505.20294442    -3511.55693140
  entropy T*S    EENTRO =        -0.00000000
  eigenvalues    EBANDS =      -520.94211234
  atomic energy  EATOM  =      1406.67326350
  Solvation  Ediel_sol  =         0.00000000
  ---------------------------------------------------
  free energy    TOTEN  =      -103.50850849 eV

  energy without entropy =     -103.50850849  energy(sigma->0) =     -103.50850849


--------------------------------------------------------------------------------------------------------




--------------------------------------- Iteration      1(  12)  ---------------------------------------


    POTLOK:  cpu time      2.1412: real time      2.3550
    SETDIJ:  cpu time      0.0059: real time      0.0059
    EDDIAG:  cpu time      0.5897: real time      0.7938
  RMM-DIIS:  cpu time      3.1985: real time      3.1987
    ORTHCH:  cpu time      0.0306: real time      0.0307
       DOS:  cpu time      0.0003: real time      0.0003
    CHARGE:  cpu time      0.3699: real time      0.3699
    MIXING:  cpu time      0.0962: real time      0.0962
    --------------------------------------------
      LOOP:  cpu time      6.4321: real time      6.8504

 eigenvalue-minimisations  :    60
 total energy-change (2. order) : 0.4724795E-02  (-0.1088869E-02)
 number of electron      42.0000008 magnetization 
 augmentation part        1.0461308 magnetization 

 Broyden mixing:
  rms(total) = 0.28895E-01    rms(broyden)= 0.28894E-01
  rms(prec ) = 0.38956E-01
  weight for this iteration     100.00

 eigenvalues of (default mixing * dielectric matrix)
  average eigenvalue GAMMA=   1.5231
  2.4697  2.4697  1.4178  1.4178  0.8419  1.0224  1.0224

 Free energy of the ion-electron system (eV)
  ---------------------------------------------------
  alpha Z        PSCENC =         2.15216506
  Ewald energy   TEWEN  =      2584.85016000
  -Hartree energ DENC   =     -3711.41014082
  -exchange      EXHF   =         0.00000000
  -V(xc)+E(xc)   XCENC  =       140.88090592
  PAW double counting   =      3523.86775339    -3530.20864879
  entropy T*S    EENTRO =        -0.00000000
  eigenvalues    EBANDS =      -520.30924194
  atomic energy  EATOM  =      1406.67326350
  Solvation  Ediel_sol  =         0.00000000
  ---------------------------------------------------
  free energy    TOTEN  =      -103.50378370 eV

  energy without entropy =     -103.50378370  energy(sigma->0) =     -103.50378370


--------------------------------------------------------------------------------------------------------




--------------------------------------- Iteration      1(  13)  ---------------------------------------


    POTLOK:  cpu time      2.0828: real time      2.0832
    SETDIJ:  cpu time      0.0324: real time      0.0324
    EDDIAG:  cpu time      0.6616: real time      0.6617
  RMM-DIIS:  cpu time      3.2344: real time      3.2347
    ORTHCH:  cpu time      0.0251: real time      0.0496
       DOS:  cpu time      0.0003: real time      0.0003
    CHARGE:  cpu time      0.4184: real time      0.4335
    MIXING:  cpu time      0.0939: real time      0.0939
    --------------------------------------------
      LOOP:  cpu time      6.5488: real time      6.5893

 eigenvalue-minimisations  :    60
 total energy-change (2. order) :-0.4864741E-02  (-0.2771188E-02)
 number of electron      42.0000008 magnetization 
 augmentation part        1.0461835 magnetization 

 Broyden mixing:
  rms(total) = 0.10500E-01    rms(broyden)= 0.10496E-01
  rms(prec ) = 0.16925E-01
  weight for this iteration     100.00

 eigenvalues of (default mixing * dielectric matrix)
  average eigenvalue GAMMA=   1.6890
  3.8474  2.5177  1.8243  1.3060  1.3060  0.8409  0.9348  0.9348

 Free energy of the ion-electron system (eV)
  ---------------------------------------------------
  alpha Z        PSCENC =         2.15216506
  Ewald energy   TEWEN  =      2584.85016000
  -Hartree energ DENC   =     -3713.00945799
  -exchange      EXHF   =         0.00000000
  -V(xc)+E(xc)   XCENC  =       140.89383816
  PAW double counting   =      3516.94142871    -3523.26604798
  entropy T*S    EENTRO =        -0.00000000
  eigenvalues    EBANDS =      -518.74399789
  atomic energy  EATOM  =      1406.67326350
  Solvation  Ediel_sol  =         0.00000000
  ---------------------------------------------------
  free energy    TOTEN  =      -103.50864844 eV

  energy without entropy =     -103.50864844  energy(sigma->0) =     -103.50864844


--------------------------------------------------------------------------------------------------------




--------------------------------------- Iteration      1(  14)  ---------------------------------------


    POTLOK:  cpu time      2.2552: real time      2.2554
    SETDIJ:  cpu time      0.0064: real time      0.0064
    EDDIAG:  cpu time      0.6495: real time      0.6495
  RMM-DIIS:  cpu time      3.2683: real time      3.2685
    ORTHCH:  cpu time      0.0255: real time      0.0263
       DOS:  cpu time      0.0003: real time      0.0003
    CHARGE:  cpu time      0.3685: real time      0.3685
    MIXING:  cpu time      0.1263: real time      0.1264
    --------------------------------------------
      LOOP:  cpu time      6.6999: real time      6.7014

 eigenvalue-minimisations  :    62
 total energy-change (2. order) :-0.3755849E-02  (-0.5530917E-03)
 number of electron      42.0000008 magnetization 
 augmentation part        1.0456044 magnetization 

 Broyden mixing:
  rms(total) = 0.94633E-02    rms(broyden)= 0.94611E-02
  rms(prec ) = 0.13198E-01
  weight for this iteration     100.00

 eigenvalues of (default mixing * dielectric matrix)
  average eigenvalue GAMMA=   1.7803
  4.1492  2.5881  2.3351  1.7051  1.2670  1.2670  0.9413  0.9413  0.8283

 Free energy of the ion-electron system (eV)
  ---------------------------------------------------
  alpha Z        PSCENC =         2.15216506
  Ewald energy   TEWEN  =      2584.85016000
  -Hartree energ DENC   =     -3715.57023267
  -exchange      EXHF   =         0.00000000
  -V(xc)+E(xc)   XCENC  =       140.94559259
  PAW double counting   =      3520.05289286    -3526.38244240
  entropy T*S    EENTRO =        -0.00000000
  eigenvalues    EBANDS =      -516.23380323
  atomic energy  EATOM  =      1406.67326350
  Solvation  Ediel_sol  =         0.00000000
  ---------------------------------------------------
  free energy    TOTEN  =      -103.51240429 eV

  energy without entropy =     -103.51240429  energy(sigma->0) =     -103.51240429


--------------------------------------------------------------------------------------------------------




--------------------------------------- Iteration      1(  15)  ---------------------------------------


    POTLOK:  cpu time      2.2344: real time      2.2347
    SETDIJ:  cpu time      0.0136: real time      0.0136
    EDDIAG:  cpu time      0.6186: real time      0.6186
  RMM-DIIS:  cpu time      2.9521: real time      2.9530
    ORTHCH:  cpu time      0.0248: real time      0.0249
       DOS:  cpu time      0.0003: real time      0.0003
    CHARGE:  cpu time      0.3990: real time      0.3995
    MIXING:  cpu time      0.1559: real time      0.1567
    --------------------------------------------
      LOOP:  cpu time      6.3988: real time      6.4014

 eigenvalue-minimisations  :    60
 total energy-change (2. order) :-0.1022390E-01  (-0.2625596E-03)
 number of electron      42.0000008 magnetization 
 augmentation part        1.0452007 magnetization 

 Broyden mixing:
  rms(total) = 0.34698E-02    rms(broyden)= 0.34691E-02
  rms(prec ) = 0.55678E-02
  weight for this iteration     100.00

 eigenvalues of (default mixing * dielectric matrix)
  average eigenvalue GAMMA=   1.9088
  5.9523  2.7593  2.2310  1.8843  1.3265  1.3265  0.9120  0.9120  0.8424  0.9415

 Free energy of the ion-electron system (eV)
  ---------------------------------------------------
  alpha Z        PSCENC =         2.15216506
  Ewald energy   TEWEN  =      2584.85016000
  -Hartree energ DENC   =     -3716.87698578
  -exchange      EXHF   =         0.00000000
  -V(xc)+E(xc)   XCENC  =       140.95129679
  PAW double counting   =      3519.10075941    -3525.43636279
  entropy T*S    EENTRO =        -0.00000000
  eigenvalues    EBANDS =      -514.93692437
  atomic energy  EATOM  =      1406.67326350
  Solvation  Ediel_sol  =         0.00000000
  ---------------------------------------------------
  free energy    TOTEN  =      -103.52262819 eV

  energy without entropy =     -103.52262819  energy(sigma->0) =     -103.52262819


--------------------------------------------------------------------------------------------------------




--------------------------------------- Iteration      1(  16)  ---------------------------------------


    POTLOK:  cpu time      2.0309: real time      2.0595
    SETDIJ:  cpu time      0.0299: real time      0.0306
    EDDIAG:  cpu time      0.6144: real time      0.6163
  RMM-DIIS:  cpu time      3.2448: real time      3.2595
    ORTHCH:  cpu time      0.0238: real time      0.0398
       DOS:  cpu time      0.0002: real time      0.0002
    CHARGE:  cpu time      0.3508: real time      0.4460
    MIXING:  cpu time      0.1411: real time      0.1411
    --------------------------------------------
      LOOP:  cpu time      6.4359: real time      6.5929

 eigenvalue-minimisations  :    63
 total energy-change (2. order) :-0.3101708E-02  (-0.1755283E-03)
 number of electron      42.0000008 magnetization 
 augmentation part        1.0448478 magnetization 

 Broyden mixing:
  rms(total) = 0.38566E-02    rms(broyden)= 0.38559E-02
  rms(prec ) = 0.52182E-02
  weight for this iteration     100.00

 eigenvalues of (default mixing * dielectric matrix)
  average eigenvalue GAMMA=   1.9373
  6.3892  2.8920  1.9916  1.9916  1.3429  1.3429  1.6206  0.9753  0.9753  0.9626
  0.8261

 Free energy of the ion-electron system (eV)
  ---------------------------------------------------
  alpha Z        PSCENC =         2.15216506
  Ewald energy   TEWEN  =      2584.85016000
  -Hartree energ DENC   =     -3717.08976115
  -exchange      EXHF   =         0.00000000
  -V(xc)+E(xc)   XCENC  =       140.94177346
  PAW double counting   =      3516.83213908    -3523.16862017
  entropy T*S    EENTRO =        -0.00000000
  eigenvalues    EBANDS =      -514.71684967
  atomic energy  EATOM  =      1406.67326350
  Solvation  Ediel_sol  =         0.00000000
  ---------------------------------------------------
  free energy    TOTEN  =      -103.52572990 eV

  energy without entropy =     -103.52572990  energy(sigma->0) =     -103.52572990


--------------------------------------------------------------------------------------------------------




--------------------------------------- Iteration      1(  17)  ---------------------------------------


    POTLOK:  cpu time      1.6979: real time      1.7416
    SETDIJ:  cpu time      0.0142: real time      0.0142
    EDDIAG:  cpu time      0.4430: real time      0.4432
  RMM-DIIS:  cpu time      2.0824: real time      2.0938
    ORTHCH:  cpu time      0.0144: real time      0.0144
       DOS:  cpu time      0.0002: real time      0.0002
    CHARGE:  cpu time      0.2207: real time      0.2207
    MIXING:  cpu time      0.1154: real time      0.1154
    --------------------------------------------
      LOOP:  cpu time      4.5884: real time      4.6437

 eigenvalue-minimisations  :    60
 total energy-change (2. order) :-0.3744293E-02  (-0.1024146E-03)
 number of electron      42.0000008 magnetization 
 augmentation part        1.0449654 magnetization 

 Broyden mixing:
  rms(total) = 0.23707E-02    rms(broyden)= 0.23704E-02
  rms(prec ) = 0.30828E-02
  weight for this iteration     100.00

 eigenvalues of (default mixing * dielectric matrix)
  average eigenvalue GAMMA=   2.0655
  7.5228  3.7670  2.4201  1.8580  1.8580  1.3419  1.3419  1.0566  1.0566  0.8241
  0.8692  0.8692

 Free energy of the ion-electron system (eV)
  ---------------------------------------------------
  alpha Z        PSCENC =         2.15216506
  Ewald energy   TEWEN  =      2584.85016000
  -Hartree energ DENC   =     -3716.56543793
  -exchange      EXHF   =         0.00000000
  -V(xc)+E(xc)   XCENC  =       140.91619502
  PAW double counting   =      3517.26322484    -3523.59522599
  entropy T*S    EENTRO =        -0.00000000
  eigenvalues    EBANDS =      -515.22381868
  atomic energy  EATOM  =      1406.67326350
  Solvation  Ediel_sol  =         0.00000000
  ---------------------------------------------------
  free energy    TOTEN  =      -103.52947419 eV

  energy without entropy =     -103.52947419  energy(sigma->0) =     -103.52947419


--------------------------------------------------------------------------------------------------------




--------------------------------------- Iteration      1(  18)  ---------------------------------------


    POTLOK:  cpu time      1.4922: real time      1.4923
    SETDIJ:  cpu time      0.0130: real time      0.0130
    EDDIAG:  cpu time      0.3968: real time      0.3968
  RMM-DIIS:  cpu time      1.8664: real time      1.8666
    ORTHCH:  cpu time      0.0119: real time      0.0119
       DOS:  cpu time      0.0002: real time      0.0002
    CHARGE:  cpu time      0.1965: real time      0.1965
    MIXING:  cpu time      0.0883: real time      0.0883
    --------------------------------------------
      LOOP:  cpu time      4.0651: real time      4.0654

 eigenvalue-minimisations  :    59
 total energy-change (2. order) :-0.8988771E-03  (-0.2936191E-04)
 number of electron      42.0000008 magnetization 
 augmentation part        1.0449396 magnetization 

 Broyden mixing:
  rms(total) = 0.21662E-02    rms(broyden)= 0.21660E-02
  rms(prec ) = 0.26208E-02
  weight for this iteration     100.00

 eigenvalues of (default mixing * dielectric matrix)
  average eigenvalue GAMMA=   2.0806
  7.8265  3.9417  2.3642  1.8923  1.8923  1.7436  1.3380  1.3380  1.0243  1.0243
  0.8231  0.9198  0.9198

 Free energy of the ion-electron system (eV)
  ---------------------------------------------------
  alpha Z        PSCENC =         2.15216506
  Ewald energy   TEWEN  =      2584.85016000
  -Hartree energ DENC   =     -3716.66160698
  -exchange      EXHF   =         0.00000000
  -V(xc)+E(xc)   XCENC  =       140.91675863
  PAW double counting   =      3518.68763839    -3525.01981756
  entropy T*S    EENTRO =        -0.00000000
  eigenvalues    EBANDS =      -515.12893410
  atomic energy  EATOM  =      1406.67326350
  Solvation  Ediel_sol  =         0.00000000
  ---------------------------------------------------
  free energy    TOTEN  =      -103.53037307 eV

  energy without entropy =     -103.53037307  energy(sigma->0) =     -103.53037307


--------------------------------------------------------------------------------------------------------




--------------------------------------- Iteration      1(  19)  ---------------------------------------


    POTLOK:  cpu time      1.4589: real time      1.4591
    SETDIJ:  cpu time      0.0178: real time      0.0179
    EDDIAG:  cpu time      0.3452: real time      0.3453
  RMM-DIIS:  cpu time      1.4935: real time      1.4936
    ORTHCH:  cpu time      0.0124: real time      0.0124
       DOS:  cpu time      0.0001: real time      0.0001
    CHARGE:  cpu time      0.1483: real time      0.1484
    MIXING:  cpu time      0.0746: real time      0.0746
    --------------------------------------------
      LOOP:  cpu time      3.5509: real time      3.5514

 eigenvalue-minimisations  :    59
 total energy-change (2. order) :-0.6117048E-03  (-0.2280941E-04)
 number of electron      42.0000008 magnetization 
 augmentation part        1.0448092 magnetization 

 Broyden mixing:
  rms(total) = 0.13227E-02    rms(broyden)= 0.13225E-02
  rms(prec ) = 0.15813E-02
  weight for this iteration     100.00

 eigenvalues of (default mixing * dielectric matrix)
  average eigenvalue GAMMA=   2.1445
  8.3820  4.8031  2.5801  2.3595  1.9763  1.3270  1.3270  1.2529  1.2529  1.2102
  0.8302  0.9276  0.8974  0.8974

 Free energy of the ion-electron system (eV)
  ---------------------------------------------------
  alpha Z        PSCENC =         2.15216506
  Ewald energy   TEWEN  =      2584.85016000
  -Hartree energ DENC   =     -3716.76825969
  -exchange      EXHF   =         0.00000000
  -V(xc)+E(xc)   XCENC  =       140.91809426
  PAW double counting   =      3517.43770424    -3523.77170123
  entropy T*S    EENTRO =        -0.00000000
  eigenvalues    EBANDS =      -515.02241092
  atomic energy  EATOM  =      1406.67326350
  Solvation  Ediel_sol  =         0.00000000
  ---------------------------------------------------
  free energy    TOTEN  =      -103.53098477 eV

  energy without entropy =     -103.53098477  energy(sigma->0) =     -103.53098477


--------------------------------------------------------------------------------------------------------




--------------------------------------- Iteration      1(  20)  ---------------------------------------


    POTLOK:  cpu time      1.2996: real time      1.3083
    SETDIJ:  cpu time      0.0114: real time      0.0114
    EDDIAG:  cpu time      0.2312: real time      0.2313
  RMM-DIIS:  cpu time      1.0491: real time      1.0491
    ORTHCH:  cpu time      0.0131: real time      0.0131
       DOS:  cpu time      0.0002: real time      0.0001
    CHARGE:  cpu time      0.1515: real time      0.1515
    MIXING:  cpu time      0.0753: real time      0.0753
    --------------------------------------------
      LOOP:  cpu time      2.8313: real time      2.8400

 eigenvalue-minimisations  :    48
 total energy-change (2. order) :-0.2051487E-03  (-0.4206075E-05)
 number of electron      42.0000008 magnetization 
 augmentation part        1.0447982 magnetization 

 Broyden mixing:
  rms(total) = 0.80404E-03    rms(broyden)= 0.80396E-03
  rms(prec ) = 0.98614E-03
  weight for this iteration     100.00

 eigenvalues of (default mixing * dielectric matrix)
  average eigenvalue GAMMA=   2.1688
  8.3839  5.2122  2.7198  2.2734  2.2734  1.3112  1.3112  1.4311  1.4311  1.5097
  0.8241  1.0104  1.0104  0.9146  0.9146

 Free energy of the ion-electron system (eV)
  ---------------------------------------------------
  alpha Z        PSCENC =         2.15216506
  Ewald energy   TEWEN  =      2584.85016000
  -Hartree energ DENC   =     -3716.73858148
  -exchange      EXHF   =         0.00000000
  -V(xc)+E(xc)   XCENC  =       140.91676917
  PAW double counting   =      3517.82648576    -3524.15970873
  entropy T*S    EENTRO =        -0.00000000
  eigenvalues    EBANDS =      -515.05174319
  atomic energy  EATOM  =      1406.67326350
  Solvation  Ediel_sol  =         0.00000000
  ---------------------------------------------------
  free energy    TOTEN  =      -103.53118992 eV

  energy without entropy =     -103.53118992  energy(sigma->0) =     -103.53118992


--------------------------------------------------------------------------------------------------------




--------------------------------------- Iteration      1(  21)  ---------------------------------------


    POTLOK:  cpu time      1.0523: real time      1.0523
    SETDIJ:  cpu time      0.0133: real time      0.0133
    EDDIAG:  cpu time      0.2453: real time      0.2453
  RMM-DIIS:  cpu time      0.8923: real time      0.8924
    ORTHCH:  cpu time      0.0089: real time      0.0089
       DOS:  cpu time      0.0001: real time      0.0001
    CHARGE:  cpu time      0.1474: real time      0.1474
    MIXING:  cpu time      0.0814: real time      0.0814
    --------------------------------------------
      LOOP:  cpu time      2.4410: real time      2.4412

 eigenvalue-minimisations  :    41
 total energy-change (2. order) :-0.1316666E-03  (-0.1558232E-05)
 number of electron      42.0000008 magnetization 
 augmentation part        1.0448029 magnetization 

 Broyden mixing:
  rms(total) = 0.29272E-03    rms(broyden)= 0.29268E-03
  rms(prec ) = 0.39620E-03
  weight for this iteration     100.00

 eigenvalues of (default mixing * dielectric matrix)
  average eigenvalue GAMMA=   2.1977
  8.9074  5.5100  3.3320  2.4827  2.0373  2.0373  1.3163  1.3163  1.3254  1.3254
  0.8241  0.9945  0.9768  0.9768  0.9002  0.9002

 Free energy of the ion-electron system (eV)
  ---------------------------------------------------
  alpha Z        PSCENC =         2.15216506
  Ewald energy   TEWEN  =      2584.85016000
  -Hartree energ DENC   =     -3716.73304204
  -exchange      EXHF   =         0.00000000
  -V(xc)+E(xc)   XCENC  =       140.91693922
  PAW double counting   =      3517.91483268    -3524.24792917
  entropy T*S    EENTRO =        -0.00000000
  eigenvalues    EBANDS =      -515.05771084
  atomic energy  EATOM  =      1406.67326350
  Solvation  Ediel_sol  =         0.00000000
  ---------------------------------------------------
  free energy    TOTEN  =      -103.53132159 eV

  energy without entropy =     -103.53132159  energy(sigma->0) =     -103.53132159


--------------------------------------------------------------------------------------------------------




--------------------------------------- Iteration      1(  22)  ---------------------------------------


    POTLOK:  cpu time      1.0733: real time      1.0734
    SETDIJ:  cpu time      0.0158: real time      0.0158
    EDDIAG:  cpu time      0.2198: real time      0.2198
  RMM-DIIS:  cpu time      0.8762: real time      0.8763
    ORTHCH:  cpu time      0.0095: real time      0.0095
       DOS:  cpu time      0.0001: real time      0.0001
    CHARGE:  cpu time      0.1466: real time      0.1466
    MIXING:  cpu time      0.0543: real time      0.0543
    --------------------------------------------
      LOOP:  cpu time      2.3956: real time      2.3958

 eigenvalue-minimisations  :    39
 total energy-change (2. order) :-0.4089658E-04  (-0.6287718E-06)
 number of electron      42.0000008 magnetization 
 augmentation part        1.0448114 magnetization 

 Broyden mixing:
  rms(total) = 0.17903E-03    rms(broyden)= 0.17896E-03
  rms(prec ) = 0.23473E-03
  weight for this iteration     100.00

 eigenvalues of (default mixing * dielectric matrix)
  average eigenvalue GAMMA=   2.2102
  9.0030  5.7288  3.3932  2.2849  2.2792  2.2792  1.6128  1.3051  1.3051  1.3433
  1.3433  1.0616  1.0616  0.8253  0.9111  0.9111  0.9248

 Free energy of the ion-electron system (eV)
  ---------------------------------------------------
  alpha Z        PSCENC =         2.15216506
  Ewald energy   TEWEN  =      2584.85016000
  -Hartree energ DENC   =     -3716.72318746
  -exchange      EXHF   =         0.00000000
  -V(xc)+E(xc)   XCENC  =       140.91664245
  PAW double counting   =      3517.75226133    -3524.08516116
  entropy T*S    EENTRO =        -0.00000000
  eigenvalues    EBANDS =      -515.06750620
  atomic energy  EATOM  =      1406.67326350
  Solvation  Ediel_sol  =         0.00000000
  ---------------------------------------------------
  free energy    TOTEN  =      -103.53136248 eV

  energy without entropy =     -103.53136248  energy(sigma->0) =     -103.53136248


--------------------------------------------------------------------------------------------------------




--------------------------------------- Iteration      1(  23)  ---------------------------------------


    POTLOK:  cpu time      0.9014: real time      0.9014
    SETDIJ:  cpu time      0.0190: real time      0.0190
    EDDIAG:  cpu time      0.1710: real time      0.1710
  RMM-DIIS:  cpu time      0.6017: real time      0.6018
    ORTHCH:  cpu time      0.0077: real time      0.0077
       DOS:  cpu time      0.0001: real time      0.0001
    CHARGE:  cpu time      0.0906: real time      0.0906
    MIXING:  cpu time      0.0431: real time      0.0431
    --------------------------------------------
      LOOP:  cpu time      1.8346: real time      1.8346

 eigenvalue-minimisations  :    36
 total energy-change (2. order) :-0.2899949E-04  (-0.2125919E-06)
 number of electron      42.0000008 magnetization 
 augmentation part        1.0448165 magnetization 

 Broyden mixing:
  rms(total) = 0.11745E-03    rms(broyden)= 0.11740E-03
  rms(prec ) = 0.14890E-03
  weight for this iteration     100.00

 eigenvalues of (default mixing * dielectric matrix)
  average eigenvalue GAMMA=   2.2641
  9.1718  6.2042  4.2776  2.7382  2.4054  1.9834  1.9834  1.3138  1.3138  1.3633
  1.3633  1.0382  1.0382  0.8250  0.9209  0.9209  0.9458  0.9458

 Free energy of the ion-electron system (eV)
  ---------------------------------------------------
  alpha Z        PSCENC =         2.15216506
  Ewald energy   TEWEN  =      2584.85016000
  -Hartree energ DENC   =     -3716.71432166
  -exchange      EXHF   =         0.00000000
  -V(xc)+E(xc)   XCENC  =       140.91642531
  PAW double counting   =      3517.81974057    -3524.15257660
  entropy T*S    EENTRO =        -0.00000000
  eigenvalues    EBANDS =      -515.07624765
  atomic energy  EATOM  =      1406.67326350
  Solvation  Ediel_sol  =         0.00000000
  ---------------------------------------------------
  free energy    TOTEN  =      -103.53139148 eV

  energy without entropy =     -103.53139148  energy(sigma->0) =     -103.53139148


--------------------------------------------------------------------------------------------------------




--------------------------------------- Iteration      1(  24)  ---------------------------------------


    POTLOK:  cpu time      0.8470: real time      0.8471
    SETDIJ:  cpu time      0.0176: real time      0.0176
    EDDIAG:  cpu time      0.1756: real time      0.1756
  RMM-DIIS:  cpu time      0.5266: real time      0.5266
    ORTHCH:  cpu time      0.0104: real time      0.0104
       DOS:  cpu time      0.0001: real time      0.0001
    --------------------------------------------
      LOOP:  cpu time      1.5773: real time      1.5774

 eigenvalue-minimisations  :    27
 total energy-change (2. order) :-0.9641896E-05  (-0.5100927E-07)
 number of electron      42.0000008 magnetization 
 augmentation part        1.0448165 magnetization 

 Free energy of the ion-electron system (eV)
  ---------------------------------------------------
  alpha Z        PSCENC =         2.15216506
  Ewald energy   TEWEN  =      2584.85016000
  -Hartree energ DENC   =     -3716.71942423
  -exchange      EXHF   =         0.00000000
  -V(xc)+E(xc)   XCENC  =       140.91653656
  PAW double counting   =      3517.76251196    -3524.09543193
  entropy T*S    EENTRO =        -0.00000000
  eigenvalues    EBANDS =      -515.07118205
  atomic energy  EATOM  =      1406.67326350
  Solvation  Ediel_sol  =         0.00000000
  ---------------------------------------------------
  free energy    TOTEN  =      -103.53140112 eV

  energy without entropy =     -103.53140112  energy(sigma->0) =     -103.53140112


[...]
 d Force = 0.5270563E-03[ 0.607E-03, 0.447E-03]  d Ewald  = 0.5270560E-03 0.233E-09


--------------------------------------------------------------------------------------------------------


    POTLOK:  cpu time      0.7245: real time      1.3388


--------------------------------------------------------------------------------------------------------


 NEB: the previous image is higher in energy: T
 NEB: the next image is higher in energy    : F
 NEB: only prev energy greater

 NEB: Tangent
 ----------------------------------------------
      0.03050     -0.02106      0.00745
      0.01926     -0.02164      0.01922
     -0.00904      0.01587      0.01039
      0.03107     -0.00249     -0.02800
      0.07648      0.01260      0.26417
      0.11362     -0.01965      0.14302
      0.12140     -0.00600      0.21912
      0.03724     -0.02847      0.01620
     -0.07559     -0.17289     -0.15781
      0.09214      0.19455     -0.18312
      0.01979     -0.03910      0.04822
     -0.08965      0.15063      0.03314
     -0.04946     -0.04175     -0.10833
      0.28366      0.01225      0.43558
     -0.16042      0.06419      0.42113
      0.21640     -0.09253      0.08599
      0.12368      0.00609      0.26895

 NEB: forces: par spring, perp REAL, dneb     0.003154    0.037736    0.000000
 NEB: distance to prev, next image, angle between     1.321374    1.322005  147.933334
 NEB: projections on to tangent (spring, REAL)     0.003154    0.027079

 stress matrix after NEB project (eV)
     -1.94483      0.02052     -0.01847
      0.02052     -1.89786      0.02462
     -0.01847      0.02462     -1.92952
  FORCES: max atom, RMS     0.016968    0.009184
  FORCE total and by dimension    0.037868    0.015850
  Stress total and by dimension    3.333171    1.944834
 Quasi-Newton relaxation of ions (Broydens 2nd method)
  g(Force)  = 0.418E-03   g(Stress)= 0.000E+00

 retain information from N=  1 steps
 eigenvalues of (default step * inverse Hessian matrix)
  average eigenvalue of G=   1.6672
 eigenvalue spectrum of G is  1.6672


--------------------------------------------------------------------------------------------------------


    WAVPRE:  cpu time      1.1705: real time      1.8803
    FEWALD:  cpu time      0.0005: real time      0.0005
    ORTHCH:  cpu time      0.0821: real time      0.1621
     LOOP+:  cpu time     16.8141: real time     22.4008


--------------------------------------- Iteration    108(   1)  ---------------------------------------


    POTLOK:  cpu time      1.2518: real time      2.5267
    SETDIJ:  cpu time      0.0048: real time      0.0049
     EDDAV:  cpu time      1.2918: real time      1.8537
       DOS:  cpu time      0.0004: real time      0.0125
    CHARGE:  cpu time      0.1743: real time      0.3265
    MIXING:  cpu time      0.0295: real time      0.0615
    --------------------------------------------
      LOOP:  cpu time      2.7526: real time      4.7859

 eigenvalue-minimisations  :    60
 total energy-change (2. order) :-0.3785802E-04  (-0.5670685E-04)
 number of electron      42.0000020 magnetization 
 augmentation part        1.0340733 magnetization 

 Broyden mixing:
  rms(total) = 0.48740E-03    rms(broyden)= 0.48645E-03
  rms(prec ) = 0.52204E-03
  weight for this iteration     100.00

 Free energy of the ion-electron system (eV)
  ---------------------------------------------------
  alpha Z        PSCENC =         2.15216506
  Ewald energy   TEWEN  =      2552.55025404
  -Hartree energ DENC   =     -3685.88766362
  -exchange      EXHF   =         0.00000000
  -V(xc)+E(xc)   XCENC  =       140.50042915
  PAW double counting   =      3450.45972992    -3456.75945887
  entropy T*S    EENTRO =        -0.00000000
  eigenvalues    EBANDS =      -513.28103007
  atomic energy  EATOM  =      1406.67326350
  Solvation  Ediel_sol  =         0.00000000
  ---------------------------------------------------
  free energy    TOTEN  =      -103.59231088 eV

  energy without entropy =     -103.59231088  energy(sigma->0) =     -103.59231088


--------------------------------------------------------------------------------------------------------




--------------------------------------- Iteration    108(   2)  ---------------------------------------


    POTLOK:  cpu time      1.2939: real time      1.6931
    SETDIJ:  cpu time      0.0038: real time      0.0039
    EDDIAG:  cpu time      0.2357: real time      0.2960
  RMM-DIIS:  cpu time      0.9706: real time      1.0550
    ORTHCH:  cpu time      0.0096: real time      0.0096
       DOS:  cpu time      0.0001: real time      0.0001
    --------------------------------------------
      LOOP:  cpu time      2.5137: real time      3.0577

 eigenvalue-minimisations  :    36
 total energy-change (2. order) :-0.3930263E-06  (-0.5655103E-06)
 number of electron      42.0000020 magnetization 
 augmentation part        1.0340733 magnetization 

 Free energy of the ion-electron system (eV)
  ---------------------------------------------------
  alpha Z        PSCENC =         2.15216506
  Ewald energy   TEWEN  =      2552.55025404
  -Hartree energ DENC   =     -3685.88625640
  -exchange      EXHF   =         0.00000000
  -V(xc)+E(xc)   XCENC  =       140.50034163
  PAW double counting   =      3450.41745334    -3456.71715299
  entropy T*S    EENTRO =        -0.00000000
  eigenvalues    EBANDS =      -513.28237945
  atomic energy  EATOM  =      1406.67326350
  Solvation  Ediel_sol  =         0.00000000
  ---------------------------------------------------
  free energy    TOTEN  =      -103.59231128 eV

  energy without entropy =     -103.59231128  energy(sigma->0) =     -103.59231128


--------------------------------------------------------------------------------------------------------




 average (electrostatic) potential at core
  the test charge radii are     0.6991  0.5201  0.7089
  (the norm of the test charge is              1.0000)
       1 -58.7525       2 -58.7586       3 -59.0435       4 -58.8666       5 -58.9689
       6 -59.8224       7 -59.6560       8 -42.0008       9 -41.9851      10 -41.9505
      11 -42.0234      12 -42.0577      13 -42.0691      14 -41.9919      15 -41.9624
      16 -42.5197      17 -72.9186
 
 
 
 E-fermi :  -5.8776     XC(G=0):  -0.6174     alpha+bet : -0.2838

 Fermi energy:        -5.8775507845

 k-point     1 :       0.0000    0.0000    0.0000
  band No.  band energies     occupation 
      1     -22.2790      2.00000
      2     -21.1894      2.00000
      3     -19.1003      2.00000
      4     -18.7142      2.00000
      5     -15.9968      2.00000
      6     -15.4582      2.00000
      7     -13.0826      2.00000
      8     -13.0146      2.00000
      9     -11.7769      2.00000
     10     -11.0022      2.00000
     11     -10.5277      2.00000
     12     -10.3589      2.00000
     13      -9.8364      2.00000
     14      -9.6476      2.00000
     15      -8.7433      2.00000
     16      -8.5232      2.00000
     17      -8.2926      2.00000
     18      -7.9200      2.00000
     19      -7.5863      2.00000
     20      -7.4654      2.00000
     21      -6.1257      2.00000
     22      -0.9303      0.00000
     23      -0.5944      0.00000
     24      -0.1521      0.00000
     25      -0.0766      0.00000
     26      -0.0329      0.00000
     27       0.0297      0.00000
     28       0.1688      0.00000
     29       0.3789      0.00000
     30       0.4863      0.00000


--------------------------------------------------------------------------------------------------------


 soft charge-density along one line, spin component           1
         0         1         2         3         4         5         6         7         8         9
 total charge-density along one line
 
 pseudopotential strength for first ion, spin component:           1
 10.251  13.633  -0.000  -0.000   0.001  -0.001   0.001  -0.002
 13.633  18.130  -0.000  -0.000   0.001  -0.001   0.001  -0.002
 -0.000  -0.000  -4.381  -0.001  -0.000   8.570   0.001   0.000
 -0.000  -0.000  -0.001  -4.373   0.001   0.001   8.559  -0.001
  0.001   0.001  -0.000   0.001  -4.376   0.000  -0.001   8.562
 -0.001  -0.001   8.570   0.001   0.000 -18.900  -0.001  -0.000
  0.001   0.001   0.001   8.559  -0.001  -0.001 -18.890   0.001
 -0.002  -0.002   0.000  -0.001   8.562  -0.000   0.001 -18.892
 total augmentation occupancy for first ion, spin component:           1
  7.788  -3.373   0.381   0.030   0.029   0.062   0.003   0.011
 -3.373   1.507  -0.219  -0.011  -0.033  -0.034  -0.001  -0.009
  0.381  -0.219   1.894   0.076   0.025   0.177   0.012   0.001
  0.030  -0.011   0.076   1.226  -0.140   0.012   0.079  -0.022
  0.029  -0.033   0.025  -0.140   1.622   0.001  -0.022   0.141
  0.062  -0.034   0.177   0.012   0.001   0.018   0.002  -0.000
  0.003  -0.001   0.012   0.079  -0.022   0.002   0.006  -0.003
  0.011  -0.009   0.001  -0.022   0.141  -0.000  -0.003   0.013


------------------------ aborting loop because EDIFF is reached ----------------------------------------


    CHARGE:  cpu time      0.2889: real time      0.3038
    FORLOC:  cpu time      0.1363: real time      0.2234
    FORNL :  cpu time      0.1950: real time      0.1980
    STRESS:  cpu time      0.9369: real time      1.5135
    FORCOR:  cpu time      1.1562: real time      1.8282
    FORHAR:  cpu time      0.5359: real time      0.7697
    MIXING:  cpu time      0.0621: real time      0.0692
    OFIELD:  cpu time      0.0001: real time      0.0001

 ---------------------------------------------------------------------------------------------

         DFTD3 V3.0 Rev 1        
 Edisp (eV)   -0.19734

 E6    (eV) :    -0.0807
 E8    (eV) :    -0.1166
 % E8        : 59.08
    FORVDW:  cpu time      0.0064: real time      0.0083

  FORCE on cell =-STRESS in cart. coord.  units (eV):
  Direction    XX          YY          ZZ          XY          YZ          ZX
  --------------------------------------------------------------------------------------
  Alpha Z     2.15217     2.15217     2.15217
  Ewald    1385.37749  1224.00837   -56.83677   425.03145  -100.15846  -523.91322
  Hartree  1614.76406  1493.22708   577.89288   291.57246   -88.34347  -386.71835
  E(xc)    -152.62748  -152.96035  -154.47382     0.65131     0.00203    -0.52521
  Local   -3396.39779 -3121.20646  -945.48507  -702.50542   188.69088   904.90237
  n-local   -62.31429   -61.05378   -60.44161    -1.66728     0.02853    -0.00573
  augment    -0.61704    -0.65253    -0.63073     0.00697    -0.01626    -0.01176
  Kinetic   607.74024   614.61506   635.88373   -13.05817    -0.18515     6.24056
  Fock        0.00000     0.00000     0.00000     0.00000     0.00000     0.00000
  vdW        -0.02186    -0.02724     0.00949    -0.01503     0.00632     0.01665
  -------------------------------------------------------------------------------------
  Total      -1.94451    -1.89768    -1.92974     0.01628     0.02442    -0.01468
  in kB      -0.85264    -0.83211    -0.84617     0.00714     0.01071    -0.00644
  external pressure =       -0.84 kB  Pullay stress =        0.00 kB


 VOLUME and BASIS-vectors are now :
 -----------------------------------------------------------------------------
  energy-cutoff  :      400.00
  volume of cell :     3653.87
      direct lattice vectors                 reciprocal lattice vectors
    15.402250290  0.000000000  0.000000000     0.064925578  0.000000000  0.000000000
     0.000000000 15.402250290  0.000000000     0.000000000  0.064925578  0.000000000
     0.000000000  0.000000000 15.402250290     0.000000000  0.000000000  0.064925578

  length of vectors
    15.402250290 15.402250290 15.402250290     0.064925578  0.064925578  0.064925578


 FORCES acting on ions
    electron-ion (+dipol)            ewald-force                    non-local-force                 convergence-correction
 -----------------------------------------------------------------------------------------------
   0.154E+03 0.114E+03 -.434E+02   -.155E+03 -.114E+03 0.436E+02   0.522E+00 0.321E+00 -.211E+00   -.392E-03 0.244E-03 -.159E-02
   0.159E+03 -.864E+02 -.733E+02   -.160E+03 0.865E+02 0.737E+02   0.816E+00 -.345E-01 -.359E+00   -.578E-03 0.241E-03 -.218E-02
   0.402E+02 -.159E+03 -.561E+02   -.405E+02 0.159E+03 0.567E+02   0.372E+00 -.893E+00 -.543E+00   0.122E-02 -.692E-03 0.118E-02
   0.177E+02 0.181E+03 0.126E+02   -.175E+02 -.181E+03 -.127E+02   -.281E+00 0.325E+00 0.384E-01   0.306E-03 -.737E-04 0.149E-02
   -.130E+03 0.108E+03 -.144E+02   0.130E+03 -.109E+03 0.148E+02   -.593E+00 0.121E+01 -.426E+00   0.284E-03 0.887E-03 0.127E-02
   -.174E+02 -.317E+02 0.944E+02   0.136E+02 0.290E+02 -.935E+02   0.373E+01 0.262E+01 -.858E+00   0.249E-03 0.321E-03 0.117E-02
   -.231E+02 -.224E+02 0.401E+02   0.205E+02 0.207E+02 -.397E+02   0.257E+01 0.168E+01 -.422E+00   -.156E-03 0.234E-03 0.736E-03
   0.697E+02 0.434E+02 -.180E+02   -.745E+02 -.464E+02 0.191E+02   0.473E+01 0.292E+01 -.116E+01   -.128E-03 0.318E-04 -.399E-03
   -.822E+01 0.741E+02 -.411E+02   0.908E+01 -.783E+02 0.444E+02   -.861E+00 0.420E+01 -.336E+01   0.815E-04 0.214E-03 0.216E-03
   0.181E+02 0.543E+02 0.624E+02   -.192E+02 -.566E+02 -.671E+02   0.111E+01 0.230E+01 0.475E+01   0.662E-04 -.169E-03 0.930E-04
   0.706E+02 -.359E+02 -.290E+02   -.753E+02 0.385E+02 0.309E+02   0.473E+01 -.254E+01 -.186E+01   -.217E-03 0.620E-04 -.607E-03
   -.238E+02 -.412E+02 -.709E+02   0.264E+02 0.427E+02 0.755E+02   -.259E+01 -.146E+01 -.457E+01   0.365E-04 -.375E-03 0.358E-04
   0.300E+02 -.780E+02 0.210E+02   -.316E+02 0.828E+02 -.233E+02   0.166E+01 -.477E+01 0.227E+01   0.196E-03 0.186E-03 0.315E-03
   -.610E+02 0.487E+02 0.371E+02   0.648E+02 -.512E+02 -.402E+02   -.385E+01 0.252E+01 0.315E+01   0.205E-03 0.166E-04 0.150E-03
   -.493E+02 0.128E+02 -.691E+02   0.516E+02 -.123E+02 0.741E+02   -.231E+01 -.564E+00 -.499E+01   -.196E-04 0.154E-03 0.350E-04
   0.279E+02 -.216E+00 0.842E+02   -.304E+02 -.376E+00 -.891E+02   0.250E+01 0.591E+00 0.488E+01   0.434E-05 0.588E-04 0.117E-03
   -.254E+03 -.169E+03 0.615E+02   0.287E+03 0.190E+03 -.671E+02   -.335E+02 -.216E+02 0.561E+01   -.153E-02 -.279E-03 0.775E-03
 -----------------------------------------------------------------------------------------------
   0.212E+02 0.132E+02 -.194E+01   -.568E-13 0.284E-13 -.426E-13   -.212E+02 -.132E+02 0.194E+01   -.378E-03 0.106E-02 0.281E-02
 
 
 POSITION                                       TOTAL-FORCE (eV/Angst)
 -----------------------------------------------------------------------------------
      5.21818      6.77149      8.73334         0.001496     -0.000983      0.003588
      5.20884      8.10258      8.88407         0.002966     -0.001199      0.006041
      6.38844      8.97777      8.56225        -0.002083      0.001454     -0.004737
      6.41521      5.99230      8.26588        -0.001677     -0.000262     -0.005501
      7.68864      6.84135      8.17307        -0.000061     -0.000685      0.002789
      7.36490      8.24529      7.61751         0.000946     -0.001315      0.000613
      8.57587      9.02863      7.39418         0.007710      0.002503      0.002464
      4.31173      6.20025      8.95436         0.003320     -0.001126      0.009892
      6.59141      5.14485      8.95044        -0.003548     -0.007815     -0.013352
      6.18930      5.52854      7.28762        -0.003140      0.009515     -0.011266
      4.30396      8.60126      9.24223         0.005941     -0.002460      0.015863
      6.92231      9.26537      9.48627        -0.004039      0.016641     -0.008673
      6.05614      9.92110      8.10121        -0.009972     -0.005452     -0.015531
      8.44039      6.34662      7.54134         0.005012     -0.000144      0.006206
      8.13842      6.96433      9.17138        -0.006056     -0.001287      0.006601
      6.86786      8.12739      6.63679         0.005426     -0.002963     -0.001585
      9.54740      9.65614      7.23153        -0.002240     -0.004423      0.006589
 -----------------------------------------------------------------------------------
    total drift:                                0.001366     -0.003003      0.004308


--------------------------------------------------------------------------------------------------------



  FREE ENERGIE OF THE ION-ELECTRON SYSTEM (eV)
  ---------------------------------------------------
  free  energy   TOTEN  =      -103.78964809 eV

  energy  without entropy=     -103.78964809  energy(sigma->0) =     -103.78964809
 
 d Force = 0.3557716E-04[ 0.346E-04, 0.366E-04]  d Energy = 0.3553570E-04 0.415E-07
 d Force = 0.1409582E-01[ 0.141E-01, 0.141E-01]  d Ewald  = 0.1409582E-01-0.546E-11


--------------------------------------------------------------------------------------------------------


    POTLOK:  cpu time      1.3027: real time      1.3248


--------------------------------------------------------------------------------------------------------


 NEB: the previous image is higher in energy: T
 NEB: the next image is higher in energy    : F
 NEB: only prev energy greater

 NEB: Tangent
 ----------------------------------------------
      0.03048     -0.02108      0.00742
      0.01923     -0.02166      0.01920
     -0.00907      0.01586      0.01042
      0.03110     -0.00248     -0.02793
      0.07650      0.01260      0.26416
      0.11367     -0.01962      0.14307
      0.12152     -0.00597      0.21928
      0.03721     -0.02849      0.01611
     -0.07556     -0.17273     -0.15766
      0.09224      0.19445     -0.18293
      0.01975     -0.03912      0.04815
     -0.08973      0.15062      0.03315
     -0.04948     -0.04180     -0.10831
      0.28360      0.01226      0.43553
     -0.16036      0.06415      0.42109
      0.21651     -0.09245      0.08600
      0.12380      0.00608      0.26922

 NEB: forces: par spring, perp REAL, dneb     0.003329    0.036811    0.000000
 NEB: distance to prev, next image, angle between     1.321397    1.322063  147.919203
 NEB: projections on to tangent (spring, REAL)     0.003329    0.026988

 stress matrix after NEB project (eV)
     -1.94451      0.01628     -0.01468
      0.01628     -1.89768      0.02442
     -0.01468      0.02442     -1.92974
  FORCES: max atom, RMS     0.016296    0.008964
  FORCE total and by dimension    0.036961    0.014724
  Stress total and by dimension    3.332920    1.944509
 Quasi-Newton relaxation of ions (Broydens 2nd method)
  g(Force)  = 0.386E-03   g(Stress)= 0.000E+00

 retain information from N=  2 steps
 eigenvalues of (default step * inverse Hessian matrix)
  average eigenvalue of G=   4.3533
 eigenvalue spectrum of G is  4.3533  4.3533


--------------------------------------------------------------------------------------------------------


  
 reached required accuracy - stopping structural energy minimisation
     LOOP+:  cpu time     13.8343: real time     18.2105
    4ORBIT:  cpu time      0.0000: real time      0.0000

 total amount of memory used by VASP MPI-rank0   277942. kBytes
=======================================================================

   base      :      30000. kBytes
   nonl-proj :      15437. kBytes
   fftplans  :      71598. kBytes
   grid      :     152883. kBytes
   one-center:         26. kBytes
   wavefun   :       7998. kBytes
 
  
  
 General timing and accounting informations for this job:
 ========================================================
  
                  Total CPU time used (sec):     2248.125
                            User time (sec):     2091.172
                          System time (sec):      156.953
                         Elapsed time (sec):     3151.787
  
                   Maximum memory used (kb):     1137116.
                   Average memory used (kb):          N/A
  
                          Minor page faults:     12160074
                          Major page faults:          253
                 Voluntary context switches:         1559
