unknown system                          
           1
    15.402250    0.000000    0.000000
     0.000000   15.402250    0.000000
     0.000000    0.000000   15.402250
   C    H    N 
     7     9     1
Direct configuration=     1
   0.33945137  0.43962330  0.56873454
   0.33738673  0.52644263  0.57369127
   0.41499189  0.58157966  0.55656210
   0.41675809  0.39023570  0.53803054
   0.49945239  0.44561821  0.53308998
   0.47822331  0.53465975  0.49540301
   0.55627352  0.58567291  0.48140143
   0.28152305  0.40201348  0.58372051
   0.42793015  0.33341481  0.57957794
   0.40500962  0.36315550  0.47315670
   0.27763313  0.55892747  0.59293144
   0.45130682  0.59543493  0.61622302
   0.39634088  0.64516320  0.53073510
   0.54928134  0.41278640  0.49444440
   0.52671980  0.45538599  0.59766860
   0.44653358  0.52569789  0.43243608
   0.61960660  0.62613637  0.47232078
Direct configuration=     2
   0.33934077  0.43973741  0.56857930
   0.33730655  0.52625953  0.57391806
   0.41508687  0.58172385  0.55642084
   0.41708734  0.39020966  0.53806526
   0.49937741  0.44536589  0.53313741
   0.47825441  0.53480028  0.49539666
   0.55632117  0.58568505  0.48141469
   0.28140775  0.40198195  0.58371810
   0.42796430  0.33332343  0.57964142
   0.40486231  0.36309928  0.47300336
   0.27757076  0.55897128  0.59301513
   0.45126569  0.59551293  0.61644700
   0.39630821  0.64523414  0.53061254
   0.54936756  0.41274607  0.49443073
   0.52679698  0.45539486  0.59794799
   0.44647335  0.52568733  0.43223610
   0.61972942  0.62621660  0.47233154
Direct configuration=     3
   0.33924925  0.43962981  0.56837017
   0.33727035  0.52629139  0.57418822
   0.41515614  0.58185301  0.55637754
   0.41730584  0.39011768  0.53803624
   0.49943037  0.44518298  0.53327649
   0.47826176  0.53487721  0.49532467
   0.55654244  0.58579270  0.48140936
   0.28128359  0.40195410  0.58369460
   0.42801421  0.33319914  0.57972790
   0.40468424  0.36305029  0.47287505
   0.27749474  0.55901843  0.59314172
   0.45116774  0.59562287  0.61668494
   0.39625108  0.64535016  0.53042744
   0.54948342  0.41269244  0.49442661
   0.52686174  0.45538214  0.59824061
   0.44643034  0.52568889  0.43202349
   0.61977706  0.62624825  0.47236575
Direct configuration=     4
   0.33921503  0.43962046  0.56826172
   0.33727493  0.52626421  0.57432181
   0.41518001  0.58192778  0.55638367
   0.41737309  0.39003894  0.53800770
   0.49949436  0.44512711  0.53335511
   0.47829050  0.53490245  0.49527960
   0.55651895  0.58575633  0.48142661
   0.28121050  0.40193297  0.58367191
   0.42804408  0.33312817  0.57977193
   0.40458950  0.36302419  0.47281809
   0.27744710  0.55904772  0.59322858
   0.45109768  0.59569500  0.61680443
   0.39621848  0.64541215  0.53031730
   0.54955197  0.41266224  0.49443661
   0.52689025  0.45536674  0.59839472
   0.44641990  0.52569461  0.43191710
   0.61993947  0.62635164  0.47236902
Direct configuration=     5
   0.33920294  0.43963069  0.56819460
   0.33729716  0.52623328  0.57440196
   0.41517696  0.58198070  0.55641804
   0.41736640  0.38996335  0.53797746
   0.49956936  0.44512659  0.53340871
   0.47830826  0.53488605  0.49525247
   0.55662413  0.58580569  0.48141748
   0.28116109  0.40191880  0.58363920
   0.42806672  0.33307467  0.57979852
   0.40452509  0.36300317  0.47279041
   0.27741862  0.55906422  0.59331059
   0.45102833  0.59576357  0.61687663
   0.39619323  0.64544982  0.53022992
   0.54960813  0.41264085  0.49446076
   0.52690230  0.45534554  0.59849699
   0.44642850  0.52570371  0.43185660
   0.61995934  0.62636310  0.47239024
Direct configuration=     6
   0.33916673  0.43955721  0.56810184
   0.33732276  0.52628279  0.57454369
   0.41514122  0.58206112  0.55649555
   0.41729923  0.38983765  0.53792906
   0.49970818  0.44514814  0.53347317
   0.47839706  0.53486311  0.49523998
   0.55671098  0.58582132  0.48140392
   0.28109983  0.40192469  0.58351719
   0.42810457  0.33296635  0.57983403
   0.40440273  0.36293482  0.47274195
   0.27742951  0.55905055  0.59351694
   0.45085662  0.59595433  0.61700066
   0.39613785  0.64548820  0.53004829
   0.54974502  0.41260114  0.49455071
   0.52691433  0.45528096  0.59868115
   0.44648838  0.52573395  0.43177991
   0.62010268  0.62645009  0.47242844
Direct configuration=     7
   0.33911229  0.43960162  0.56794867
   0.33735868  0.52619123  0.57478171
   0.41512543  0.58220690  0.55654331
   0.41731902  0.38967554  0.53786810
   0.49983635  0.44508307  0.53359037
   0.47851905  0.53488368  0.49524814
   0.55693553  0.58590278  0.48136892
   0.28095461  0.40192169  0.58329561
   0.42816478  0.33279469  0.57988736
   0.40417585  0.36278609  0.47264526
   0.27744239  0.55903206  0.59390604
   0.45055984  0.59631145  0.61723495
   0.39604071  0.64552992  0.52973398
   0.54998607  0.41253013  0.49469963
   0.52693490  0.45516031  0.59898270
   0.44659894  0.52579107  0.43166456
   0.62027943  0.62655848  0.47249244
Direct configuration=     8
   0.33909612  0.43957250  0.56790038
   0.33736717  0.52620388  0.57486220
   0.41512704  0.58224589  0.55654601
   0.41733856  0.38963621  0.53784743
   0.49986151  0.44504041  0.53362532
   0.47856599  0.53490970  0.49526296
   0.55697219  0.58590574  0.48136145
   0.28090540  0.40193174  0.58319513
   0.42818167  0.33274726  0.57990050
   0.40409225  0.36271730  0.47262393
   0.27746728  0.55901146  0.59406735
   0.45044270  0.59646081  0.61731113
   0.39600027  0.64552861  0.52961833
   0.55006867  0.41250718  0.49475691
   0.52693554  0.45510452  0.59906340
   0.44665057  0.52581941  0.43164445
   0.62037437  0.62661950  0.47250291
Direct configuration=     9
   0.33907246  0.43953477  0.56781625
   0.33738036  0.52621036  0.57498679
   0.41514266  0.58230845  0.55654186
   0.41739182  0.38957594  0.53781398
   0.49989644  0.44496166  0.53368159
   0.47860823  0.53494496  0.49527287
   0.55712763  0.58597915  0.48134150
   0.28082392  0.40193976  0.58306480
   0.42820722  0.33268824  0.57992622
   0.40396869  0.36262097  0.47259699
   0.27748755  0.55899381  0.59428905
   0.45028667  0.59666082  0.61742465
   0.39594172  0.64553525  0.52945479
   0.55017158  0.41247433  0.49481830
   0.52694166  0.45502845  0.59917560
   0.44670736  0.52585886  0.43160143
   0.62041508  0.62664800  0.47251999
Direct configuration=    10
   0.33907041  0.43953926  0.56778002
   0.33739564  0.52618981  0.57503597
   0.41515585  0.58233720  0.55653416
   0.41741810  0.38954770  0.53779425
   0.49990389  0.44492093  0.53369248
   0.47863864  0.53497072  0.49528229
   0.55710652  0.58595724  0.48134687
   0.28077667  0.40194580  0.58298472
   0.42821771  0.33268080  0.57993787
   0.40390732  0.36255614  0.47260581
   0.27750438  0.55898279  0.59442031
   0.45020488  0.59677420  0.61746636
   0.39590808  0.64552482  0.52937266
   0.55020555  0.41245966  0.49483637
   0.52694146  0.45497696  0.59919543
   0.44673761  0.52588871  0.43159512
   0.62050646  0.62671142  0.47249976
Direct configuration=    11
   0.33906355  0.43952490  0.56772733
   0.33741698  0.52618243  0.57510870
   0.41516353  0.58237637  0.55653374
   0.41743729  0.38950634  0.53776650
   0.49992254  0.44487577  0.53370250
   0.47866813  0.53498710  0.49529615
   0.55722899  0.58602337  0.48133043
   0.28071641  0.40195799  0.58286901
   0.42823439  0.33266616  0.57995912
   0.40382025  0.36246262  0.47261624
   0.27753382  0.55896383  0.59460505
   0.45008879  0.59693482  0.61752456
   0.39585962  0.64551251  0.52925433
   0.55025476  0.41243719  0.49485893
   0.52694337  0.45490357  0.59922793
   0.44677856  0.52593132  0.43158376
   0.62050591  0.62671840  0.47248846
Direct configuration=    12
   0.33906078  0.43950808  0.56766834
   0.33744840  0.52617475  0.57518490
   0.41517069  0.58241619  0.55653295
   0.41744616  0.38946334  0.53773238
   0.49993495  0.44483074  0.53368433
   0.47871742  0.53501146  0.49531714
   0.55726389  0.58603645  0.48132510
   0.28064504  0.40198054  0.58270987
   0.42825401  0.33267276  0.57999215
   0.40371481  0.36232457  0.47265156
   0.27758642  0.55893367  0.59484784
   0.44994818  0.59714244  0.61757585
   0.39579491  0.64548366  0.52911050
   0.55029098  0.41240991  0.49485895
   0.52694656  0.45479845  0.59922470
   0.44682484  0.52599655  0.43158381
   0.62058073  0.62678101  0.47243676
Direct configuration=    13
   0.33905958  0.43950975  0.56764126
   0.33746808  0.52616455  0.57521769
   0.41516779  0.58243316  0.55653556
   0.41743520  0.38944524  0.53771577
   0.49993629  0.44481753  0.53365189
   0.47874427  0.53502131  0.49532919
   0.55726459  0.58603561  0.48132124
   0.28061076  0.40199735  0.58261469
   0.42826585  0.33269052  0.58001929
   0.40365976  0.36223321  0.47268111
   0.27762654  0.55891336  0.59498490
   0.44987800  0.59725788  0.61759030
   0.39575775  0.64546051  0.52903528
   0.55029405  0.41239399  0.49483351
   0.52695247  0.45473329  0.59919608
   0.44684401  0.52604037  0.43158959
   0.62061694  0.62681631  0.47239020
Direct configuration=    14
   0.33905633  0.43950576  0.56760557
   0.33749056  0.52615716  0.57526248
   0.41516574  0.58245512  0.55653708
   0.41742784  0.38942228  0.53769481
   0.49993831  0.44479449  0.53361880
   0.47876777  0.53503169  0.49534334
   0.55733402  0.58607769  0.48130638
   0.28056715  0.40201704  0.58249990
   0.42828030  0.33270853  0.58005179
   0.40359055  0.36212385  0.47271350
   0.27767310  0.55888925  0.59515213
   0.44979077  0.59739935  0.61761281
   0.39571220  0.64543430  0.52894163
   0.55030193  0.41237439  0.49480656
   0.52695980  0.45465535  0.59916807
   0.44686841  0.52609223  0.43159453
   0.62060824  0.62682479  0.47234450
Direct configuration=    15
   0.33905340  0.43950763  0.56758624
   0.33750683  0.52615490  0.57528346
   0.41515907  0.58246190  0.55653787
   0.41740857  0.38941573  0.53768347
   0.49992869  0.44478656  0.53356674
   0.47878339  0.53504263  0.49535032
   0.55731142  0.58606772  0.48130012
   0.28054363  0.40203650  0.58241419
   0.42829078  0.33274317  0.58008784
   0.40354789  0.36202816  0.47274975
   0.27771864  0.55886862  0.59526729
   0.44974536  0.59749393  0.61760959
   0.39567901  0.64540702  0.52888558
   0.55028016  0.41236043  0.49474757
   0.52697244  0.45459357  0.59910866
   0.44687401  0.52613856  0.43160464
   0.62063074  0.62685491  0.47228097
Direct configuration=    16
   0.33904990  0.43951019  0.56756211
   0.33752500  0.52614997  0.57530952
   0.41515402  0.58247126  0.55653780
   0.41739210  0.38940642  0.53766947
   0.49991803  0.44477306  0.53351343
   0.47879208  0.53505194  0.49535849
   0.55734502  0.58609407  0.48128415
   0.28051419  0.40205637  0.58232042
   0.42830245  0.33277932  0.58012834
   0.40349813  0.36192284  0.47278773
   0.27776514  0.55884762  0.59539586
   0.44969350  0.59759907  0.61760962
   0.39564138  0.64537870  0.52882133
   0.55025810  0.41234456  0.49468336
   0.52698697  0.45452578  0.59904769
   0.44687987  0.52618912  0.43161328
   0.62061218  0.62686019  0.47221893
Direct configuration=    17
   0.33904501  0.43951654  0.56753492
   0.33754685  0.52614586  0.57533495
   0.41514713  0.58247764  0.55653631
   0.41736684  0.38940076  0.53765413
   0.49989664  0.44475856  0.53343036
   0.47879659  0.53506673  0.49536409
   0.55734479  0.58610496  0.48126500
   0.28048216  0.40208264  0.58220861
   0.42831646  0.33283927  0.58018873
   0.40344272  0.36178396  0.47284134
   0.27782580  0.55882272  0.59554463
   0.44964661  0.59771767  0.61759689
   0.39559529  0.64534043  0.52875249
   0.55020946  0.41232566  0.49457203
   0.52701228  0.45444138  0.59894623
   0.44687518  0.52625650  0.43162462
   0.62059895  0.62687678  0.47212290
Direct configuration=    18
   0.33903984  0.43952147  0.56751081
   0.33756396  0.52614453  0.57535590
   0.41514266  0.58248227  0.55653330
   0.41734655  0.38939612  0.53764144
   0.49987612  0.44474487  0.53335445
   0.47879501  0.53508106  0.49536332
   0.55731829  0.58610000  0.48124920
   0.28045620  0.40210363  0.58212232
   0.42832736  0.33289599  0.58024583
   0.40339964  0.36166630  0.47288694
   0.27787322  0.55880548  0.59565953
   0.44961941  0.59780695  0.61758177
   0.39555691  0.64530955  0.52870131
   0.55015696  0.41231066  0.49446014
   0.52703932  0.45437316  0.59885185
   0.44686262  0.52631393  0.43163030
   0.62059903  0.62689971  0.47203351
Direct configuration=    19
   0.33903380  0.43952701  0.56748510
   0.33758168  0.52614222  0.57537811
   0.41513791  0.58248740  0.55653104
   0.41732544  0.38939056  0.53762782
   0.49985461  0.44473007  0.53327580
   0.47878696  0.53509225  0.49536242
   0.55734039  0.58612736  0.48122426
   0.28042856  0.40212480  0.58203414
   0.42833846  0.33295504  0.58030671
   0.40335470  0.36154357  0.47293375
   0.27792094  0.55878856  0.59577776
   0.44959274  0.59789824  0.61756591
   0.39551649  0.64527835  0.52864833
   0.55010090  0.41229495  0.49434063
   0.52706850  0.45430249  0.59875312
   0.44684751  0.52637347  0.43163461
   0.62055706  0.62689678  0.47194547
Direct configuration=    20
   0.33902489  0.43953424  0.56745068
   0.33760277  0.52614049  0.57540723
   0.41513403  0.58249438  0.55652817
   0.41729985  0.38938208  0.53761046
   0.49982727  0.44471152  0.53317359
   0.47877908  0.53511126  0.49535500
   0.55729943  0.58611987  0.48119899
   0.28039427  0.40214997  0.58193140
   0.42835160  0.33303287  0.58038928
   0.40330093  0.36138929  0.47299116
   0.27797637  0.55877153  0.59591707
   0.44957021  0.59800387  0.61754346
   0.39546568  0.64524209  0.52858643
   0.55002158  0.41227609  0.49417447
   0.52711127  0.45421645  0.59862332
   0.44682038  0.52644869  0.43163374
   0.62055215  0.62692499  0.47182256
Direct configuration=    21
   0.33901568  0.43954032  0.56741762
   0.33762220  0.52613873  0.57543599
   0.41512953  0.58250172  0.55652573
   0.41727564  0.38937322  0.53759385
   0.49980243  0.44469332  0.53307803
   0.47876670  0.53512529  0.49534776
   0.55730588  0.58614167  0.48116788
   0.28036140  0.40217330  0.58183508
   0.42836364  0.33310459  0.58046702
   0.40324962  0.36124441  0.47304422
   0.27802766  0.55875581  0.59604855
   0.44954849  0.59810374  0.61752359
   0.39541741  0.64520864  0.52852745
   0.54994782  0.41225833  0.49401897
   0.52715191  0.45413552  0.59850342
   0.44679488  0.52651899  0.43163234
   0.62051254  0.62692886  0.47171324
Direct configuration=    22
   0.33900179  0.43954812  0.56737288
   0.33764542  0.52613742  0.57547526
   0.41512477  0.58251248  0.55652311
   0.41724518  0.38935962  0.53757219
   0.49977131  0.44466990  0.53295313
   0.47874827  0.53514416  0.49533162
   0.55728971  0.58615573  0.48112695
   0.28031959  0.40220136  0.58172092
   0.42837775  0.33319801  0.58057245
   0.40318640  0.36105975  0.47310930
   0.27808783  0.55874039  0.59620726
   0.44953169  0.59822273  0.61749674
   0.39535528  0.64516975  0.52845613
   0.54984589  0.41223667  0.49380477
   0.52721083  0.45403500  0.59834644
   0.44675403  0.52660866  0.43162319
   0.62047367  0.62694228  0.47156806
Direct configuration=    23
   0.33898597  0.43955591  0.56732844
   0.33766618  0.52613615  0.57551530
   0.41512141  0.58252402  0.55652156
   0.41721513  0.38934397  0.53755084
   0.49974175  0.44464853  0.53283193
   0.47872910  0.53516396  0.49531079
   0.55725031  0.58615440  0.48108734
   0.28027875  0.40222675  0.58161799
   0.42838975  0.33328777  0.58067877
   0.40312655  0.36088158  0.47316875
   0.27814122  0.55872907  0.59635359
   0.44952328  0.59833193  0.61747019
   0.39529411  0.64513591  0.52838925
   0.54974317  0.41221628  0.49358626
   0.52727366  0.45393962  0.59819264
   0.44670793  0.52669488  0.43160741
   0.62045466  0.62696686  0.47142437
Direct configuration=    24
   0.33898319  0.43955611  0.56732508
   0.33766595  0.52613662  0.57551924
   0.41512092  0.58252570  0.55652207
   0.41721332  0.38934161  0.53754959
   0.49974080  0.44464688  0.53282420
   0.47872135  0.53516242  0.49530559
   0.55727542  0.58617285  0.48107696
   0.28027664  0.40222671  0.58161926
   0.42838877  0.33329225  0.58068770
   0.40312489  0.36087303  0.47316931
   0.27814013  0.55873146  0.59635488
   0.44952992  0.59833229  0.61746815
   0.39529033  0.64513683  0.52838834
   0.54973357  0.41221628  0.49356575
   0.52728203  0.45393648  0.59818299
   0.44670010  0.52669866  0.43160159
   0.62042688  0.62695101  0.47141974
Direct configuration=    25
   0.33897844  0.43955789  0.56731455
   0.33766983  0.52613671  0.57552946
   0.41512009  0.58252881  0.55652217
   0.41720621  0.38933712  0.53754483
   0.49973445  0.44464207  0.53279588
   0.47871651  0.53516781  0.49529793
   0.55725133  0.58616350  0.48106763
   0.28026759  0.40223154  0.58160061
   0.42839025  0.33331210  0.58071367
   0.40311254  0.36083343  0.47318092
   0.27814977  0.55873073  0.59638361
   0.44953272  0.59835350  0.61746167
   0.39527617  0.64513088  0.52837508
   0.54970767  0.41221261  0.49351082
   0.52729961  0.45391607  0.59814698
   0.44668625  0.52671751  0.43159464
   0.62043357  0.62696382  0.47138451
Direct configuration=    26
   0.33897221  0.43955981  0.56730243
   0.33767364  0.52613692  0.57554150
   0.41511900  0.58253236  0.55652192
   0.41719797  0.38933182  0.53753941
   0.49972743  0.44463663  0.53276299
   0.47870663  0.53517137  0.49528831
   0.55725536  0.58617326  0.48105053
   0.28025714  0.40223673  0.58158099
   0.42839111  0.33333445  0.58074379
   0.40309871  0.36078848  0.47319363
   0.27815965  0.55873057  0.59641490
   0.44953770  0.59837642  0.61745410
   0.39525967  0.64512474  0.52836074
   0.54967697  0.41220886  0.49344607
   0.52732113  0.45389322  0.59810562
   0.44666945  0.52673871  0.43158624
   0.62041330  0.62696045  0.47134817
Direct configuration=    27
   0.33888545  0.43959118  0.56712127
   0.33773566  0.52614045  0.57572086
   0.41510087  0.58258621  0.55651722
   0.41707544  0.38925598  0.53745735
   0.49961968  0.44455257  0.53226340
   0.47858398  0.53523803  0.49514782
   0.55710809  0.58618618  0.48083056
   0.28010207  0.40231888  0.58127559
   0.42840477  0.33367360  0.58118978
   0.40288971  0.36011034  0.47339096
   0.27831783  0.55872383  0.59689826
   0.44960232  0.59873351  0.61733635
   0.39501246  0.64502569  0.52814168
   0.54922096  0.41215313  0.49248207
   0.52764133  0.45354531  0.59747929
   0.44642444  0.52706058  0.43146601
   0.62027811  0.62701985  0.47077776
Direct configuration=    28
   0.33889448  0.43958949  0.56714092
   0.33773060  0.52613956  0.57570342
   0.41510151  0.58258087  0.55651798
   0.41708504  0.38926357  0.53746458
   0.49962707  0.44455972  0.53230997
   0.47858747  0.53522869  0.49516115
   0.55717737  0.58622155  0.48083755
   0.28011668  0.40231242  0.58130326
   0.42840017  0.33364303  0.58114613
   0.40290897  0.36017128  0.47337508
   0.27830556  0.55872310  0.59685773
   0.44959508  0.59870499  0.61734264
   0.39503315  0.64503258  0.52816139
   0.54926377  0.41215897  0.49256785
   0.52761333  0.45357441  0.59752881
   0.44644668  0.52703100  0.43147777
   0.62024069  0.62698179  0.47083824
Direct configuration=    29
   0.33888712  0.43959268  0.56712559
   0.33773680  0.52614004  0.57571997
   0.41509993  0.58258565  0.55651716
   0.41707271  0.38925673  0.53745707
   0.49961592  0.44455224  0.53226265
   0.47857859  0.53523752  0.49514762
   0.55713798  0.58620621  0.48081972
   0.28010260  0.40232069  0.58127469
   0.42839968  0.33367472  0.58118624
   0.40288958  0.36010747  0.47339444
   0.27832168  0.55872164  0.59690502
   0.44960045  0.59874089  0.61732954
   0.39500894  0.64502216  0.52814059
   0.54922176  0.41215429  0.49247710
   0.52764405  0.45354049  0.59746700
   0.44642387  0.52706111  0.43146673
   0.62024934  0.62700065  0.47078177
Direct configuration=    30
   0.33888259  0.43959453  0.56711798
   0.33774074  0.52614051  0.57573013
   0.41509787  0.58258800  0.55651538
   0.41706419  0.38925332  0.53745215
   0.49960817  0.44454675  0.53223110
   0.47857059  0.53524181  0.49513893
   0.55712399  0.58620432  0.48080271
   0.28009384  0.40232661  0.58125697
   0.42839645  0.33369425  0.58120897
   0.40287713  0.36006706  0.47340780
   0.27833306  0.55871973  0.59693760
   0.44960290  0.59876660  0.61731873
   0.39499192  0.64501418  0.52812731
   0.54919556  0.41215233  0.49241942
   0.52766479  0.45351747  0.59742461
   0.44640975  0.52707958  0.43146063
   0.62024615  0.62700687  0.47074769
Direct configuration=    31
   0.33887253  0.43959988  0.56709889
   0.33775058  0.52614059  0.57575444
   0.41509228  0.58259425  0.55651123
   0.41704396  0.38924528  0.53744002
   0.49959014  0.44453304  0.53215626
   0.47854886  0.53524931  0.49511943
   0.55713677  0.58622919  0.48075742
   0.28007273  0.40234068  0.58121477
   0.42838815  0.33374020  0.58126227
   0.40284686  0.35997102  0.47343902
   0.27836012  0.55871529  0.59701572
   0.44960829  0.59882870  0.61729206
   0.39495059  0.64499503  0.52809456
   0.54913269  0.41214812  0.49228175
   0.52771472  0.45346248  0.59732361
   0.44637522  0.52712291  0.43144473
   0.62019752  0.62699499  0.47067521
Direct configuration=    32
   0.33883642  0.43961848  0.56702950
   0.33778585  0.52614177  0.57584374
   0.41507409  0.58261718  0.55649530
   0.41697234  0.38921555  0.53739616
   0.49952698  0.44448563  0.53188660
   0.47848512  0.53528479  0.49504550
   0.55705374  0.58623583  0.48061481
   0.27999762  0.40239126  0.58106435
   0.42835893  0.33390417  0.58145402
   0.40273807  0.35962771  0.47354989
   0.27845742  0.55869960  0.59729672
   0.44962788  0.59905216  0.61719789
   0.39480207  0.64492738  0.52797599
   0.54890843  0.41213246  0.49178842
   0.52789398  0.45326584  0.59696436
   0.44625252  0.52727858  0.43138796
   0.62013050  0.62702198  0.47039685
Direct configuration=    33
   0.33883227  0.43962004  0.56702195
   0.33778997  0.52614181  0.57585500
   0.41507368  0.58262015  0.55649238
   0.41696569  0.38921154  0.53739028
   0.49952156  0.44448245  0.53186082
   0.47848005  0.53528902  0.49503584
   0.55702959  0.58622538  0.48060537
   0.27999046  0.40239637  0.58105102
   0.42835476  0.33391777  0.58147155
   0.40272578  0.35959552  0.47355842
   0.27846787  0.55869773  0.59732781
   0.44962898  0.59907805  0.61718805
   0.39478445  0.64492136  0.52796029
   0.54888818  0.41213042  0.49173913
   0.52791220  0.45324585  0.59693050
   0.44624052  0.52729286  0.43138183
   0.62013821  0.62703299  0.47036895
Direct configuration=    34
   0.33883155  0.43962022  0.56702071
   0.33779078  0.52614170  0.57585729
   0.41507346  0.58262091  0.55649178
   0.41696487  0.38921077  0.53738910
   0.49952136  0.44448189  0.53185761
   0.47847801  0.53528852  0.49503454
   0.55703830  0.58623155  0.48060228
   0.27998948  0.40239702  0.58104976
   0.42835378  0.33391879  0.58147339
   0.40272369  0.35959172  0.47355880
   0.27846952  0.55869737  0.59733319
   0.44962892  0.59908278  0.61718662
   0.39478120  0.64492052  0.52795702
   0.54888584  0.41213020  0.49173273
   0.52791482  0.45324303  0.59692665
   0.44623895  0.52729430  0.43138081
   0.62012923  0.62702790  0.47036686
Direct configuration=    35
   0.33882910  0.43962147  0.56701551
   0.33779439  0.52614151  0.57586612
   0.41507247  0.58262370  0.55648988
   0.41696011  0.38920778  0.53738494
   0.49951807  0.44447894  0.53183996
   0.47847325  0.53529064  0.49502876
   0.55703578  0.58623321  0.48059384
   0.27998471  0.40240038  0.58104148
   0.42835058  0.33392730  0.58148451
   0.40271514  0.35957053  0.47356370
   0.27847723  0.55869589  0.59735602
   0.44962947  0.59910210  0.61717961
   0.39476837  0.64491585  0.52794512
   0.54887260  0.41212910  0.49170007
   0.52792721  0.45322932  0.59690449
   0.44623083  0.52730341  0.43137614
   0.62012245  0.62702734  0.47034949
Direct configuration=    36
   0.33880913  0.43962960  0.56697480
   0.33781956  0.52614173  0.57593122
   0.41506208  0.58264425  0.55647376
   0.41692454  0.38918636  0.53735128
   0.49949403  0.44445394  0.53170360
   0.47843911  0.53530506  0.49498515
   0.55700267  0.58623749  0.48052973
   0.27994662  0.40242715  0.58097465
   0.42832482  0.33399505  0.58157019
   0.40264743  0.35940361  0.47360199
   0.27853702  0.55868461  0.59753430
   0.44963424  0.59925365  0.61712313
   0.39466745  0.64487846  0.52785137
   0.54876550  0.41212163  0.49144245
   0.52802472  0.45312178  0.59672727
   0.44616646  0.52737566  0.43133882
   0.62008344  0.62703282  0.47021536
Direct configuration=    37
   0.33879668  0.43963566  0.56694815
   0.33783672  0.52614118  0.57597468
   0.41505470  0.58265832  0.55646283
   0.41690063  0.38917200  0.53732860
   0.49947736  0.44443646  0.53161265
   0.47841650  0.53531494  0.49495645
   0.55697919  0.58623937  0.48048721
   0.27992142  0.40244492  0.58093069
   0.42830719  0.33404003  0.58162591
   0.40260244  0.35929339  0.47362700
   0.27857735  0.55867694  0.59765443
   0.44963691  0.59935597  0.61708441
   0.39459968  0.64485263  0.52778797
   0.54869478  0.41211671  0.49127144
   0.52808938  0.45305011  0.59660973
   0.44612417  0.52742341  0.43131429
   0.62005908  0.62703710  0.47012684
Direct configuration=    38
   0.33880652  0.43963229  0.56696738
   0.33782555  0.52614060  0.57594572
   0.41505798  0.58264945  0.55646992
   0.41691634  0.38918150  0.53734324
   0.49948795  0.44444607  0.53167402
   0.47843128  0.53530754  0.49497698
   0.55700202  0.58624279  0.48051407
   0.27993916  0.40243278  0.58096173
   0.42831819  0.33400893  0.58158500
   0.40263342  0.35937052  0.47360908
   0.27855099  0.55868171  0.59757558
   0.44963404  0.59928912  0.61710863
   0.39464476  0.64486821  0.52782939
   0.54874386  0.41212044  0.49138972
   0.52804451  0.45309889  0.59669085
   0.44615450  0.52738999  0.43133203
   0.62007081  0.62703085  0.47018929
Direct configuration=    39
   0.33879768  0.43963718  0.56694740
   0.33783952  0.52614008  0.57597992
   0.41505203  0.58266040  0.55646146
   0.41689729  0.38917026  0.53732535
   0.49947413  0.44443205  0.53160376
   0.47841368  0.53531551  0.49495555
   0.55698224  0.58624308  0.48048119
   0.27992017  0.40244673  0.58092803
   0.42830405  0.33404363  0.58162692
   0.40259870  0.35928560  0.47362800
   0.27858340  0.55867528  0.59767107
   0.44963563  0.59937072  0.61707718
   0.39459125  0.64484710  0.52777879
   0.54868948  0.41211680  0.49125759
   0.52809413  0.45304282  0.59659933
   0.44612252  0.52742678  0.43131354
   0.62005313  0.62703478  0.47012008
Direct configuration=    40
   0.33878655  0.43964203  0.56692372
   0.33785566  0.52613971  0.57602265
   0.41504209  0.58267360  0.55644990
   0.41687386  0.38915708  0.53730162
   0.49945771  0.44441216  0.53151700
   0.47839188  0.53532325  0.49492981
   0.55696798  0.58625094  0.48043664
   0.27989748  0.40246416  0.58088755
   0.42828527  0.33408568  0.58167489
   0.40255578  0.35918346  0.47364997
   0.27862410  0.55866682  0.59779146
   0.44963637  0.59947392  0.61703626
   0.39452379  0.64481910  0.52771435
   0.54862252  0.41211262  0.49109625
   0.52815410  0.45297361  0.59648716
   0.44608441  0.52747107  0.43129173
   0.62002513  0.62703601  0.47003810
Direct configuration=    41
   0.33879349  0.43963931  0.56693783
   0.33784686  0.52613974  0.57599903
   0.41504716  0.58266602  0.55645592
   0.41688673  0.38916463  0.53731434
   0.49946640  0.44442278  0.53156627
   0.47840485  0.53531912  0.49494495
   0.55697131  0.58624349  0.48046214
   0.27991090  0.40245447  0.58091110
   0.42829510  0.33406153  0.58164568
   0.40258004  0.35924236  0.47363664
   0.27860218  0.55867111  0.59772614
   0.44963520  0.59941826  0.61705759
   0.39456060  0.64483357  0.52774882
   0.54866084  0.41211507  0.49118794
   0.52811951  0.45301222  0.59655037
   0.44610688  0.52744557  0.43130461
   0.62004534  0.62703798  0.47008441
Direct configuration=    42
   0.33878880  0.43964226  0.56692691
   0.33785545  0.52613901  0.57602026
   0.41504272  0.58267248  0.55644998
   0.41687481  0.38915801  0.53730259
   0.49945755  0.44441345  0.53152415
   0.47839432  0.53532350  0.49493262
   0.55696146  0.58624519  0.48044109
   0.27990021  0.40246297  0.58089193
   0.42828554  0.33408179  0.58166805
   0.40255910  0.35919305  0.47364678
   0.27862284  0.55866663  0.59778695
   0.44963512  0.59947058  0.61703648
   0.39452675  0.64481913  0.52771596
   0.54862879  0.41211288  0.49110933
   0.52814831  0.45297793  0.59649544
   0.44608887  0.52746697  0.43129435
   0.62003377  0.62703964  0.47004401
Direct configuration=    43
   0.33877704  0.43964709  0.56690122
   0.33787225  0.52613866  0.57606520
   0.41503015  0.58268560  0.55643578
   0.41685052  0.38914518  0.53727562
   0.49944213  0.44439259  0.53143451
   0.47837385  0.53532992  0.49490727
   0.55694511  0.58625208  0.48039731
   0.27987716  0.40248152  0.58084974
   0.42826442  0.33412436  0.58171341
   0.40251332  0.35908843  0.47366676
   0.27866676  0.55865728  0.59791661
   0.44963458  0.59958305  0.61698992
   0.39445326  0.64478762  0.52764376
   0.54855645  0.41210983  0.49094052
   0.52821022  0.45290473  0.59637636
   0.44604936  0.52751182  0.43127041
   0.62000656  0.62704189  0.46996399
Direct configuration=    44
   0.33878117  0.43964639  0.56690914
   0.33786842  0.52613795  0.57605387
   0.41503369  0.58268213  0.55643892
   0.41685645  0.38914855  0.53728214
   0.49944502  0.44439818  0.53145869
   0.47837875  0.53532832  0.49491425
   0.55695155  0.58625124  0.48040898
   0.27988409  0.40247643  0.58086237
   0.42826932  0.33411200  0.58169860
   0.40252577  0.35911849  0.47365999
   0.27865613  0.55865923  0.59788494
   0.44963376  0.59955593  0.61700049
   0.39447148  0.64479462  0.52766066
   0.54857710  0.41211047  0.49098694
   0.52819271  0.45292392  0.59640922
   0.44606145  0.52749894  0.43127795
   0.62001230  0.62703988  0.46998677
Direct configuration=    45
   0.33877865  0.43964812  0.56690280
   0.33787373  0.52613740  0.57606695