  16  16   0   0
  0.3916525E+03  0.2169110E-08  0.1718710E-08  0.1680880E-08  0.5000000E-15
  1.000000000000000E-004
  CAR 
 unknown system                          
      1.93876727    -22.74312974  301     -5.37324472      1.00000000
    -22.743  0.0000E+00  0.0000E+00
    -22.661  0.0000E+00  0.0000E+00
    -22.579  0.0000E+00  0.0000E+00
    -22.496  0.0000E+00  0.0000E+00
    -22.414  0.0000E+00  0.0000E+00
    -22.332  0.0000E+00  0.0000E+00
    -22.249  0.0000E+00  0.0000E+00
    -22.167  0.0000E+00  0.0000E+00
    -22.085  0.0000E+00  0.0000E+00
    -22.003  0.0000E+00  0.0000E+00
    -21.920  0.0000E+00  0.0000E+00
    -21.838  0.1036E-07  0.8521E-09
    -21.756  0.1704E-02  0.1402E-03
    -21.674  0.1684E+01  0.1386E+00
    -21.591  0.1779E+02  0.1603E+01
    -21.509  0.4812E+01  0.1998E+01
    -21.427  0.1832E-01  0.2000E+01
    -21.344  0.4610E-06  0.2000E+01
    -21.262  0.5938E-13  0.2000E+01
    -21.180  0.0000E+00  0.2000E+01
    -21.098  0.0000E+00  0.2000E+01
    -21.015  0.0000E+00  0.2000E+01
    -20.933  0.0000E+00  0.2000E+01
    -20.851  0.0000E+00  0.2000E+01
    -20.769  0.0000E+00  0.2000E+01
    -20.686  0.0000E+00  0.2000E+01
    -20.604  0.0000E+00  0.2000E+01
    -20.522  0.0000E+00  0.2000E+01
    -20.439  0.0000E+00  0.2000E+01
    -20.357  0.0000E+00  0.2000E+01
    -20.275  0.0000E+00  0.2000E+01
    -20.193  0.0000E+00  0.2000E+01
    -20.110  0.0000E+00  0.2000E+01
    -20.028  0.0000E+00  0.2000E+01
    -19.946  0.0000E+00  0.2000E+01
    -19.864  0.0000E+00  0.2000E+01
    -19.781  0.0000E+00  0.2000E+01
    -19.699  0.0000E+00  0.2000E+01
    -19.617  0.4048E-14  0.2000E+01
    -19.534  0.6443E-07  0.2000E+01
    -19.452  0.5438E-02  0.2000E+01
    -19.370  0.2871E+01  0.2237E+01
    -19.288  0.1836E+02  0.3747E+01
    -19.205  0.3066E+01  0.3999E+01
    -19.123  0.6310E-02  0.4000E+01
    -19.041  0.8171E-07  0.4000E+01
    -18.959  0.5398E-14  0.4000E+01
    -18.876  0.0000E+00  0.4000E+01
    -18.794  0.0000E+00  0.4000E+01
    -18.712  0.0000E+00  0.4000E+01
    -18.629  0.0000E+00  0.4000E+01
    -18.547  0.0000E+00  0.4000E+01
    -18.465  0.0000E+00  0.4000E+01
    -18.383  0.0000E+00  0.4000E+01
    -18.300  0.0000E+00  0.4000E+01
    -18.218  0.0000E+00  0.4000E+01
    -18.136  0.0000E+00  0.4000E+01
    -18.054  0.0000E+00  0.4000E+01
    -17.971  0.0000E+00  0.4000E+01
    -17.889  0.0000E+00  0.4000E+01
    -17.807  0.0000E+00  0.4000E+01
    -17.724  0.0000E+00  0.4000E+01
    -17.642  0.1565E-11  0.4000E+01
    -17.560  0.4579E-05  0.4000E+01
    -17.478  0.7170E-01  0.4006E+01
    -17.395  0.8071E+01  0.4670E+01
    -17.313  0.1547E+02  0.5943E+01
    -17.231  0.6966E+00  0.6000E+01
    -17.149  0.2869E-03  0.6000E+01
    -17.066  0.6772E-09  0.6000E+01
    -16.984  0.0000E+00  0.6000E+01
    -16.902  0.0000E+00  0.6000E+01
    -16.819  0.0000E+00  0.6000E+01
    -16.737  0.0000E+00  0.6000E+01
    -16.655  0.0000E+00  0.6000E+01
    -16.573  0.0000E+00  0.6000E+01
    -16.490  0.0000E+00  0.6000E+01
    -16.408  0.0000E+00  0.6000E+01
    -16.326  0.0000E+00  0.6000E+01
    -16.244  0.0000E+00  0.6000E+01
    -16.161  0.0000E+00  0.6000E+01
    -16.079  0.0000E+00  0.6000E+01
    -15.997  0.0000E+00  0.6000E+01
    -15.914  0.0000E+00  0.6000E+01
    -15.832  0.0000E+00  0.6000E+01
    -15.750  0.0000E+00  0.6000E+01
    -15.668  0.0000E+00  0.6000E+01
    -15.585  0.0000E+00  0.6000E+01
    -15.503  0.0000E+00  0.6000E+01
    -15.421  0.0000E+00  0.6000E+01
    -15.339  0.9943E-08  0.6000E+01
    -15.256  0.1660E-02  0.6000E+01
    -15.174  0.1663E+01  0.6137E+01
    -15.092  0.1777E+02  0.7599E+01
    -15.009  0.4856E+01  0.7998E+01
    -14.927  0.1874E-01  0.8000E+01
    -14.845  0.4782E-06  0.8000E+01
    -14.763  0.6477E-13  0.8000E+01
    -14.680  0.0000E+00  0.8000E+01
    -14.598  0.0000E+00  0.8000E+01
    -14.516  0.0000E+00  0.8000E+01
    -14.434  0.2537E-12  0.8000E+01
    -14.351  0.1274E-05  0.8000E+01
    -14.269  0.3379E-01  0.8003E+01
    -14.187  0.6124E+01  0.8507E+01
    -14.104  0.1698E+02  0.9904E+01
    -14.022  0.1170E+01  0.1000E+02
    -13.940  0.8031E-03  0.1000E+02
    -13.858  0.3241E-08  0.1000E+02
    -13.775  0.0000E+00  0.1000E+02
    -13.693  0.0000E+00  0.1000E+02
    -13.611  0.0000E+00  0.1000E+02
    -13.529  0.0000E+00  0.1000E+02
    -13.446  0.0000E+00  0.1000E+02
    -13.364  0.0000E+00  0.1000E+02
    -13.282  0.0000E+00  0.1000E+02
    -13.199  0.0000E+00  0.1000E+02
    -13.117  0.0000E+00  0.1000E+02
    -13.035  0.0000E+00  0.1000E+02
    -12.953  0.0000E+00  0.1000E+02
    -12.870  0.0000E+00  0.1000E+02
    -12.788  0.0000E+00  0.1000E+02
    -12.706  0.0000E+00  0.1000E+02
    -12.624  0.0000E+00  0.1000E+02
    -12.541  0.0000E+00  0.1000E+02
    -12.459  0.0000E+00  0.1000E+02
    -12.377  0.0000E+00  0.1000E+02
    -12.294  0.0000E+00  0.1000E+02
    -12.212  0.0000E+00  0.1000E+02
    -12.130  0.0000E+00  0.1000E+02
    -12.048  0.0000E+00  0.1000E+02
    -11.965  0.1749E-11  0.1000E+02
    -11.883  0.4946E-05  0.1000E+02
    -11.801  0.7498E-01  0.1001E+02
    -11.719  0.8198E+01  0.1068E+02
    -11.636  0.1536E+02  0.1194E+02
    -11.554  0.6736E+00  0.1200E+02
    -11.472  0.2687E-03  0.1200E+02
    -11.389  0.6137E-09  0.1200E+02
    -11.307  0.1997E-12  0.1200E+02
    -11.225  0.1078E-05  0.1200E+02
    -11.143  0.3058E-01  0.1200E+02
    -11.060  0.5894E+01  0.1249E+02
    -10.978  0.1714E+02  0.1390E+02
    -10.896  0.1246E+01  0.1400E+02
    -10.814  0.3310E-02  0.1400E+02
    -10.731  0.1977E+01  0.1416E+02
    -10.649  0.1806E+02  0.1565E+02
    -10.567  0.4259E+01  0.1600E+02
    -10.484  0.1361E-01  0.1600E+02
    -10.402  0.2951E-06  0.1600E+02
    -10.320  0.1881E-02  0.1600E+02
    -10.238  0.1764E+01  0.1615E+02
    -10.155  0.1788E+02  0.1762E+02
    -10.073  0.4649E+01  0.1800E+02
     -9.991  0.1683E-01  0.1800E+02
     -9.909  0.4073E-06  0.1800E+02
     -9.826  0.1254E-02  0.1800E+02
     -9.744  0.1454E+01  0.1812E+02
     -9.662  0.1750E+02  0.1956E+02
     -9.579  0.5332E+01  0.2000E+02
     -9.497  0.2367E-01  0.2000E+02
     -9.415  0.7037E-06  0.2000E+02
     -9.333  0.1080E-12  0.2000E+02
     -9.250  0.0000E+00  0.2000E+02
     -9.168  0.0000E+00  0.2000E+02
     -9.086  0.0000E+00  0.2000E+02
     -9.004  0.9041E-13  0.2000E+02
     -8.921  0.6151E-06  0.2000E+02
     -8.839  0.2182E-01  0.2000E+02
     -8.757  0.5163E+01  0.2043E+02
     -8.674  0.1760E+02  0.2187E+02
     -8.592  0.2594E+01  0.2209E+02
     -8.510  0.1674E+02  0.2347E+02
     -8.428  0.6458E+01  0.2400E+02
     -8.345  0.3886E-01  0.2400E+02
     -8.263  0.3401E-01  0.2400E+02
     -8.181  0.6140E+01  0.2451E+02
     -8.099  0.1709E+02  0.2591E+02
     -8.016  0.1066E+02  0.2679E+02
     -7.934  0.1422E+02  0.2796E+02
     -7.852  0.4772E+00  0.2800E+02
     -7.769  0.1388E-03  0.2800E+02
     -7.687  0.1453E-03  0.2800E+02
     -7.605  0.4888E+00  0.2804E+02
     -7.523  0.1431E+02  0.2922E+02
     -7.440  0.9402E+01  0.2999E+02
     -7.358  0.1124E+00  0.3000E+02
     -7.276  0.1001E-04  0.3000E+02
     -7.194  0.4820E-11  0.3000E+02
     -7.111  0.0000E+00  0.3000E+02
     -7.029  0.0000E+00  0.3000E+02
     -6.947  0.0000E+00  0.3000E+02
     -6.864  0.0000E+00  0.3000E+02
     -6.782  0.0000E+00  0.3000E+02
     -6.700  0.0000E+00  0.3000E+02
     -6.618  0.0000E+00  0.3000E+02
     -6.535  0.0000E+00  0.3000E+02
     -6.453  0.0000E+00  0.3000E+02
     -6.371  0.0000E+00  0.3000E+02
     -6.289  0.0000E+00  0.3000E+02
     -6.206  0.0000E+00  0.3000E+02
     -6.124  0.0000E+00  0.3000E+02
     -6.042  0.0000E+00  0.3000E+02
     -5.959  0.0000E+00  0.3000E+02
     -5.877  0.3073E-10  0.3000E+02
     -5.795  0.3579E-04  0.3000E+02
     -5.713  0.2296E+00  0.3002E+02
     -5.630  0.1173E+02  0.3098E+02
     -5.548  0.1210E+02  0.3198E+02
     -5.466  0.2563E+00  0.3200E+02
     -5.384  0.4371E-04  0.3200E+02
     -5.301  0.4122E-10  0.3200E+02
     -5.219  0.0000E+00  0.3200E+02
     -5.137  0.0000E+00  0.3200E+02
     -5.054  0.0000E+00  0.3200E+02
     -4.972  0.0000E+00  0.3200E+02
     -4.890  0.0000E+00  0.3200E+02
     -4.808  0.0000E+00  0.3200E+02
     -4.725  0.0000E+00  0.3200E+02
     -4.643  0.0000E+00  0.3200E+02
     -4.561  0.0000E+00  0.3200E+02
     -4.479  0.0000E+00  0.3200E+02
     -4.396  0.0000E+00  0.3200E+02
     -4.314  0.0000E+00  0.3200E+02
     -4.232  0.0000E+00  0.3200E+02
     -4.149  0.0000E+00  0.3200E+02
     -4.067  0.0000E+00  0.3200E+02
     -3.985  0.0000E+00  0.3200E+02
     -3.903  0.0000E+00  0.3200E+02
     -3.820  0.0000E+00  0.3200E+02
     -3.738  0.0000E+00  0.3200E+02
     -3.656  0.0000E+00  0.3200E+02
     -3.574  0.0000E+00  0.3200E+02
     -3.491  0.0000E+00  0.3200E+02
     -3.409  0.0000E+00  0.3200E+02
     -3.327  0.0000E+00  0.3200E+02
     -3.244  0.0000E+00  0.3200E+02
     -3.162  0.0000E+00  0.3200E+02
     -3.080  0.0000E+00  0.3200E+02
     -2.998  0.0000E+00  0.3200E+02
     -2.915  0.0000E+00  0.3200E+02
     -2.833  0.0000E+00  0.3200E+02
     -2.751  0.0000E+00  0.3200E+02
     -2.669  0.0000E+00  0.3200E+02
     -2.586  0.0000E+00  0.3200E+02
     -2.504  0.0000E+00  0.3200E+02
     -2.422  0.0000E+00  0.3200E+02
     -2.339  0.0000E+00  0.3200E+02
     -2.257  0.0000E+00  0.3200E+02
     -2.175  0.0000E+00  0.3200E+02
     -2.093  0.0000E+00  0.3200E+02
     -2.010  0.0000E+00  0.3200E+02
     -1.928  0.0000E+00  0.3200E+02
     -1.846  0.0000E+00  0.3200E+02
     -1.764  0.0000E+00  0.3200E+02
     -1.681  0.0000E+00  0.3200E+02
     -1.599  0.0000E+00  0.3200E+02
     -1.517  0.0000E+00  0.3200E+02
     -1.434  0.0000E+00  0.3200E+02
     -1.352  0.0000E+00  0.3200E+02
     -1.270  0.0000E+00  0.3200E+02
     -1.188  0.0000E+00  0.3200E+02
     -1.105  0.0000E+00  0.3200E+02
     -1.023  0.0000E+00  0.3200E+02
     -0.941  0.0000E+00  0.3200E+02
     -0.859  0.1571E-10  0.3200E+02
     -0.776  0.2261E-04  0.3200E+02
     -0.694  0.1780E+00  0.3201E+02
     -0.612  0.1087E+02  0.3291E+02
     -0.529  0.1293E+02  0.3397E+02
     -0.447  0.3270E+00  0.3400E+02
     -0.365  0.3850E+00  0.3403E+02
     -0.283  0.1349E+02  0.3514E+02
     -0.200  0.1028E+02  0.3599E+02
     -0.118  0.8647E+00  0.3606E+02
     -0.036  0.1631E+02  0.3740E+02
      0.046  0.2501E+02  0.3946E+02
      0.129  0.2519E+02  0.4153E+02
      0.211  0.5865E+01  0.4201E+02
      0.293  0.1127E+02  0.4294E+02
      0.376  0.2268E+02  0.4481E+02
      0.458  0.2198E+02  0.4661E+02
      0.540  0.1809E+02  0.4810E+02
      0.622  0.3355E+02  0.5086E+02
      0.705  0.3174E+02  0.5347E+02
      0.787  0.1118E+02  0.5439E+02
      0.869  0.1783E+02  0.5586E+02
      0.951  0.1684E+01  0.5600E+02
      1.034  0.1704E-02  0.5600E+02
      1.116  0.1036E-07  0.5600E+02
      1.198  0.0000E+00  0.5600E+02
      1.281  0.0000E+00  0.5600E+02
      1.363  0.0000E+00  0.5600E+02
      1.445  0.0000E+00  0.5600E+02
      1.527  0.0000E+00  0.5600E+02
      1.610  0.0000E+00  0.5600E+02
      1.692  0.0000E+00  0.5600E+02
      1.774  0.0000E+00  0.5600E+02
      1.856  0.0000E+00  0.5600E+02
      1.939  0.0000E+00  0.5600E+02
