unknown system                          
           1
    21.691100    0.000000    0.000000
     0.000000   17.187100    0.000000
     0.000000    0.000000   16.808800
   N    C    H 
     1     4    11
Direct configuration=     1
   0.37772009  0.48352733  0.51205527
   0.49729526  0.47279503  0.49208386
   0.55667312  0.52324024  0.50656488
   0.43772894  0.52305363  0.48900822
   0.61584365  0.47614854  0.49860870
   0.50287429  0.43378908  0.44199470
   0.49074438  0.43552789  0.54734129
   0.55408877  0.53941382  0.57069780
   0.56033223  0.58064361  0.47210529
   0.44298255  0.56995219  0.53054269
   0.43194902  0.55183758  0.43012793
   0.65565548  0.50968435  0.51910859
   0.61232786  0.42202771  0.52975145
   0.62619424  0.46258631  0.43603994
   0.37699513  0.47630127  0.57359050
   0.38583064  0.42716232  0.49644765
