   18   18 5000    1
  0.1875000E+03  0.1500000E-08  0.1500000E-08  0.1500000E-08  0.1000000E-15
  1.000000000000000E-004
  CAR 
 unknown system                          
     50      1     35
 
  0.0000000E+00  0.0000000E+00  0.0000000E+00  0.1000000E+01
      1        -22.824000   1.000000
      2        -22.499115   1.000000
      3        -21.734237   1.000000
      4        -19.719021   1.000000
      5        -19.535297   1.000000
      6        -16.704346   1.000000
      7        -16.440323   1.000000
      8        -13.680600   1.000000
      9        -13.649681   1.000000
     10        -13.349043   1.000000
     11        -11.742377   1.000000
     12        -11.445539   1.000000
     13        -11.162643   1.000000
     14        -10.461692   1.000000
     15        -10.310049   1.000000
     16         -9.834278   1.000000
     17         -9.155200   1.000000
     18         -8.815045   1.000000
     19         -8.497443   1.000000
     20         -8.453162   1.000000
     21         -8.267093   1.000000
     22         -8.076352   1.000000
     23         -7.904762   1.000000
     24         -7.805038   1.000000
     25         -6.585706   1.000000
     26         -1.468324   0.000000
     27         -1.087122   0.000000
     28         -0.691374   0.000000
     29         -0.626006   0.000000
     30         -0.380937   0.000000
     31         -0.286616   0.000000
     32          0.036815   0.000000
     33          0.137470   0.000000
     34          0.169962   0.000000
     35          0.431871   0.000000
