<?xml version="1.0" encoding="ISO-8859-1"?>
<modeling>
 <generator>
  <i name="program" type="string">vasp </i>
  <i name="version" type="string">6.3.2  </i>
  <i name="subversion" type="string">27Jun22 (build Oct 05 2023 17:59:42) gamma-only                       parallel </i>
  <i name="platform" type="string">LinuxIFC </i>
  <i name="date" type="string">2024 04 09 </i>
  <i name="time" type="string">10:49:28 </i>
 </generator>
 <incar>
  <i type="string" name="PREC">NORMAL</i>
  <i type="string" name="ALGO">Fast</i>
  <i type="int" name="ISPIN">     1</i>
  <i type="int" name="IBRION">     1</i>
  <i name="EDIFF">      0.00001000</i>
  <i name="EDIFFG">     -0.05000000</i>
  <i type="int" name="NSW">  5000</i>
  <i name="ENCUT">    400.00000000</i>
  <i name="POTIM">      0.10000000</i>
  <i type="int" name="ISMEAR">     0</i>
  <i name="SIGMA">      0.05000000</i>
  <i type="logical" name="LWAVE"> F  </i>
  <i type="logical" name="LCHARG"> F  </i>
  <i type="string" name="GGA">PE</i>
  <i type="int" name="IVDW">    11</i>
  <i name="SPRING">     -5.00000000</i>
 </incar>
 <primitive_cell>
  <structure name="primitive_cell" >
   <crystal>
    <varray name="basis" >
     <v>      15.00000000       0.00000000       0.00000000 </v>
     <v>       0.00000000      15.00000000       0.00000000 </v>
     <v>       0.00000000       0.00000000      15.00000000 </v>
    </varray>
    <i name="volume">   3375.00000000 </i>
    <varray name="rec_basis" >
     <v>       0.06666667       0.00000000       0.00000000 </v>
     <v>       0.00000000       0.06666667       0.00000000 </v>
     <v>       0.00000000       0.00000000       0.06666667 </v>
    </varray>
   </crystal>
   <varray name="positions" >
    <v>       0.37242396       0.54096297       0.58284089 </v>
    <v>       0.36975938       0.45209472       0.57487393 </v>
    <v>       0.45469672       0.40227934       0.58997436 </v>
    <v>       0.46222243       0.58335030       0.59558623 </v>
    <v>       0.52313750       0.54427582       0.52185737 </v>
    <v>       0.53837736       0.44573947       0.54620566 </v>
    <v>       0.60538556       0.59456777       0.51405142 </v>
    <v>       0.57004854       0.38918067       0.47440430 </v>
    <v>       0.31018261       0.41473849       0.55608465 </v>
    <v>       0.47062383       0.40340855       0.66141949 </v>
    <v>       0.44949235       0.33227855       0.57262687 </v>
    <v>       0.31434401       0.58397375       0.57520535 </v>
    <v>       0.49392254       0.56619849       0.65916416 </v>
    <v>       0.45940096       0.65564645       0.59260662 </v>
    <v>       0.49118845       0.54929990       0.45629883 </v>
    <v>       0.59012838       0.44650624       0.59756022 </v>
    <v>       0.66729095       0.64128692       0.51192094 </v>
    <v>       0.58555087       0.33485618       0.42113525 </v>
   </varray>
  </structure>
  <varray name="primitive_index" >
   <v type="int" >        1 </v>
   <v type="int" >        2 </v>
   <v type="int" >        3 </v>
   <v type="int" >        4 </v>
   <v type="int" >        5 </v>
   <v type="int" >        6 </v>
   <v type="int" >        7 </v>
   <v type="int" >        8 </v>
   <v type="int" >        9 </v>
   <v type="int" >       10 </v>
   <v type="int" >       11 </v>
   <v type="int" >       12 </v>
   <v type="int" >       13 </v>
   <v type="int" >       14 </v>
   <v type="int" >       15 </v>
   <v type="int" >       16 </v>
   <v type="int" >       17 </v>
   <v type="int" >       18 </v>
  </varray>
 </primitive_cell>
 <kpoints>
  <generation param="Monkhorst-Pack">
   <v type="int" name="divisions">       1        1        1 </v>
   <v name="usershift">      0.00000000       0.00000000       0.00000000 </v>
   <v name="genvec1">      1.00000000       0.00000000       0.00000000 </v>
   <v name="genvec2">      0.00000000       1.00000000       0.00000000 </v>
   <v name="genvec3">      0.00000000       0.00000000       1.00000000 </v>
   <v name="shift">      0.00000000       0.00000000       0.00000000 </v>
  </generation>
  <varray name="kpointlist" >
   <v>       0.00000000       0.00000000       0.00000000 </v>
  </varray>
  <varray name="weights" >
   <v>       1.00000000 </v>
  </varray>
 </kpoints>
 <parameters>
  <separator name="general" >
   <i type="string" name="SYSTEM">unknown system</i>
   <i type="logical" name="LCOMPAT"> F  </i>
  </separator>
  <separator name="electronic" >
   <i type="string" name="PREC">normal</i>
   <i name="ENMAX">    400.00000000</i>
   <i name="ENAUG">    644.87300000</i>
   <i name="EDIFF">      0.00001000</i>
   <i type="int" name="IALGO">    68</i>
   <i type="int" name="IWAVPR">    11</i>
   <i type="int" name="NBANDS">    35</i>
   <i type="int" name="NBANDSLOW">    -1</i>
   <i type="int" name="NBANDSHIGH">    -1</i>
   <i name="NELECT">     50.00000000</i>
   <i type="int" name="TURBO">     0</i>
   <i type="int" name="IRESTART">     0</i>
   <i type="int" name="NREBOOT">     0</i>
   <i type="int" name="NMIN">     0</i>
   <i name="EREF">      0.00000000</i>
   <separator name="electronic smearing" >
    <i type="int" name="ISMEAR">     0</i>
    <i name="SIGMA">      0.05000000</i>
    <i name="KSPACING">      0.50000000</i>
    <i type="logical" name="KGAMMA"> T  </i>
    <i type="logical" name="KBLOWUP"> T  </i>
   </separator>
   <separator name="electronic projectors" >
    <i type="logical" name="LREAL"> F  </i>
    <v name="ROPT">      0.00000000      0.00000000      0.00000000</v>
    <i type="int" name="LMAXPAW">  -100</i>
    <i type="int" name="LMAXMIX">     2</i>
    <i type="logical" name="NLSPLINE"> F  </i>
   </separator>
   <separator name="electronic startup" >
    <i type="int" name="ISTART">     0</i>
    <i type="int" name="ICHARG">     2</i>
    <i type="int" name="INIWAV">     1</i>
   </separator>
   <separator name="electronic spin" >
    <i type="int" name="ISPIN">     1</i>
    <i type="logical" name="LNONCOLLINEAR"> F  </i>
    <v name="MAGMOM">      1.00000000      1.00000000      1.00000000      1.00000000      1.00000000      1.00000000      1.00000000      1.00000000      1.00000000      1.00000000      1.00000000      1.00000000      1.00000000      1.00000000      1.00000000      1.00000000      1.00000000      1.00000000</v>
    <i name="NUPDOWN">     -1.00000000</i>
    <i type="logical" name="LSORBIT"> F  </i>
    <v name="SAXIS">      0.00000000      0.00000000      1.00000000</v>
    <i type="logical" name="LSPIRAL"> F  </i>
    <v name="QSPIRAL">      0.00000000      0.00000000      0.00000000</v>
    <i type="logical" name="LZEROZ"> F  </i>
   </separator>
   <separator name="electronic exchange-correlation" >
    <i type="logical" name="LASPH"> F  </i>
    <i type="logical" name="LMETAGGA"> F  </i>
   </separator>
   <separator name="electronic convergence" >
    <i type="int" name="NELM">    60</i>
    <i type="int" name="NELMDL">    -5</i>
    <i type="int" name="NELMIN">     2</i>
    <i name="ENINI">    400.00000000</i>
    <separator name="electronic convergence detail" >
     <i type="logical" name="LDIAG"> T  </i>
     <i type="logical" name="LSUBROT"> F  </i>
     <i name="WEIMIN">      0.00100000</i>
     <i name="EBREAK">      0.00000007</i>
     <i name="DEPER">      0.30000000</i>
     <i type="int" name="NRMM">     4</i>
     <i name="TIME">      0.40000000</i>
    </separator>
   </separator>
   <separator name="electronic mixer" >
    <i name="AMIX">      0.40000000</i>
    <i name="BMIX">      1.00000000</i>
    <i name="AMIN">      0.10000000</i>
    <i name="AMIX_MAG">      1.60000000</i>
    <i name="BMIX_MAG">      1.00000000</i>
    <separator name="electronic mixer details" >
     <i type="int" name="IMIX">     4</i>
     <i type="logical" name="MIXFIRST"> F  </i>
     <i type="int" name="MAXMIX">   -45</i>
     <i name="WC">    100.00000000</i>
     <i type="int" name="INIMIX">     1</i>
     <i type="int" name="MIXPRE">     1</i>
     <i type="int" name="MREMOVE">     5</i>
    </separator>
   </separator>
   <separator name="electronic dipolcorrection" >
    <i type="logical" name="LDIPOL"> F  </i>
    <i type="logical" name="LMONO"> F  </i>
    <i type="int" name="IDIPOL">     0</i>
    <i name="EPSILON">      1.00000000</i>
    <v name="DIPOL">   -100.00000000   -100.00000000   -100.00000000</v>
    <i name="EFIELD">      0.00000000</i>
   </separator>
  </separator>
  <separator name="grids" >
   <i type="int" name="NGX">    80</i>
   <i type="int" name="NGY">    80</i>
   <i type="int" name="NGZ">    80</i>
   <i type="int" name="NGXF">   160</i>
   <i type="int" name="NGYF">   160</i>
   <i type="int" name="NGZF">   160</i>
   <i type="logical" name="ADDGRID"> F  </i>
  </separator>
  <separator name="ionic" >
   <i type="int" name="NSW">  5000</i>
   <i type="int" name="IBRION">     1</i>
   <i type="int" name="MDALGO">     0</i>
   <i type="int" name="ISIF">     2</i>
   <i name="PSTRESS">      0.00000000</i>
   <i name="EDIFFG">     -0.05000000</i>
   <i type="int" name="NFREE">     0</i>
   <i name="POTIM">      0.10000000</i>
   <i name="SMASS">     -3.00000000</i>
   <i name="SCALEE">      1.00000000</i>
  </separator>
  <separator name="ionic md" >
   <i name="TEBEG">      0.00010000</i>
   <i name="TEEND">      0.00010000</i>
   <i type="int" name="NBLOCK">     1</i>
   <i type="int" name="KBLOCK">  5000</i>
   <i type="int" name="NPACO">   256</i>
   <i name="APACO">     10.00000000</i>
  </separator>
  <separator name="symmetry" >
   <i type="int" name="ISYM">     2</i>
   <i name="SYMPREC">      0.00001000</i>
  </separator>
  <separator name="dos" >
   <i type="int" name="LORBIT">     0</i>
   <v name="RWIGS">     -1.00000000     -1.00000000     -1.00000000</v>
   <i type="int" name="NEDOS">   301</i>
   <i name="EMIN">     10.00000000</i>
   <i name="EMAX">    -10.00000000</i>
   <i name="EFERMI">      0.00000000</i>
  </separator>
  <separator name="writing" >
   <i type="int" name="NWRITE">     2</i>
   <i type="logical" name="LWAVE"> F  </i>
   <i type="logical" name="LDOWNSAMPLE"> F  </i>
   <i type="logical" name="LCHARG"> F  </i>
   <i type="logical" name="LPARD"> F  </i>
   <i type="logical" name="LVTOT"> F  </i>
   <i type="logical" name="LVHAR"> F  </i>
   <i type="logical" name="LELF"> F  </i>
   <i type="logical" name="LOPTICS"> F  </i>
   <v name="STM">      0.00000000      0.00000000      0.00000000      0.00000000      0.00000000      0.00000000      0.00000000</v>
  </separator>
  <separator name="performance" >
   <i type="int" name="NPAR">     1</i>
   <i type="int" name="NSIM">     4</i>
   <i type="int" name="NBLK">    -1</i>
   <i type="logical" name="LPLANE"> T  </i>
   <i type="logical" name="LSCALAPACK"> T  </i>
   <i type="logical" name="LSCAAWARE"> F  </i>
   <i type="logical" name="LSCALU"> F  </i>
   <i type="logical" name="LASYNC"> F  </i>
   <i type="logical" name="LORBITALREAL"> F  </i>
  </separator>
  <separator name="miscellaneous" >
   <i type="int" name="IDIOT">     3</i>
   <i type="int" name="PHON_NSTRUCT">    -1</i>
   <i type="logical" name="LMUSIC"> F  </i>
   <v name="POMASS">     12.01100000      1.00000000     14.00100000</v>
   <v name="DARWINR">      0.00000000      0.00000000      0.00000000</v>
   <v name="DARWINV">      1.00000000      1.00000000      1.00000000</v>
   <i type="logical" name="LCORR"> T  </i>
  </separator>
  <i type="logical" name="GGA_COMPAT"> T  </i>
  <i type="logical" name="LBERRY"> F  </i>
  <i type="int" name="ICORELEVEL">     0</i>
  <i type="logical" name="LDAU"> F  </i>
  <i type="int" name="I_CONSTRAINED_M">     0</i>
  <separator name="electronic exchange-correlation" >
   <i type="string" name="GGA">PE</i>
   <i type="int" name="VOSKOWN">     0</i>
   <i type="logical" name="LHFCALC"> F  </i>
   <i type="string" name="PRECFOCK"></i>
   <i type="logical" name="LSYMGRAD"> F  </i>
   <i type="logical" name="LHFONE"> F  </i>
   <i type="logical" name="LRHFCALC"> F  </i>
   <i type="logical" name="LTHOMAS"> F  </i>
   <i type="logical" name="LMODELHF"> F  </i>
   <i type="logical" name="LFOCKACE"> F  </i>
   <i name="ENCUT4O">     -1.00000000</i>
   <i type="int" name="EXXOEP">     0</i>
   <i type="int" name="FOURORBIT">     0</i>
   <i name="AEXX">      0.00000000</i>
   <i name="HFALPHA">      0.00000000</i>
   <i name="MCALPHA">      0.00000000</i>
   <i name="ALDAX">      1.00000000</i>
   <i name="AGGAX">      1.00000000</i>
   <i name="ALDAC">      1.00000000</i>
   <i name="AGGAC">      1.00000000</i>
   <i type="int" name="NKREDX">     1</i>
   <i type="int" name="NKREDY">     1</i>
   <i type="int" name="NKREDZ">     1</i>
   <i type="logical" name="SHIFTRED"> F  </i>
   <i type="logical" name="ODDONLY"> F  </i>
   <i type="logical" name="EVENONLY"> F  </i>
   <i type="int" name="LMAXFOCK">     0</i>
   <i type="int" name="NMAXFOCKAE">     0</i>
   <i type="logical" name="LFOCKAEDFT"> F  </i>
   <i name="HFSCREEN">      0.00000000</i>
   <i name="HFSCREENC">      0.00000000</i>
   <i type="int" name="NBANDSGWLOW">     0</i>
  </separator>
  <separator name="vdW DFT" >
   <i type="logical" name="LUSE_VDW"> F  </i>
   <i name="Zab_VDW">     -0.84910000</i>
   <i name="PARAM1">      0.12340000</i>
   <i name="PARAM2">      1.00000000</i>
   <i name="PARAM3">      0.00000000</i>
  </separator>
  <separator name="model GW" >
   <i type="int" name="MODEL_GW">     0</i>
   <i name="MODEL_EPS0">    112.50000000</i>
   <i name="MODEL_ALPHA">      1.00000000</i>
  </separator>
  <separator name="linear response parameters" >
   <i type="logical" name="LEPSILON"> F  </i>
   <i type="logical" name="LRPA"> F  </i>
   <i type="logical" name="LNABLA"> F  </i>
   <i type="logical" name="LVEL"> F  </i>
   <i name="CSHIFT">      0.10000000</i>
   <i name="OMEGAMAX">     -1.00000000</i>
   <i name="DEG_THRESHOLD">      0.00200000</i>
   <i name="RTIME">     -0.10000000</i>
   <i name="WPLASMAI">      0.00000000</i>
   <v name="DFIELD">      0.00000000      0.00000000      0.00000000</v>
   <v name="WPLASMA">      0.00000000      0.00000000      0.00000000      0.00000000      0.00000000      0.00000000      0.00000000      0.00000000      0.00000000</v>
  </separator>
  <separator name="orbital magnetization" >
   <i type="logical" name="NUCIND"> F  </i>
   <v name="MAGPOS">      0.00000000      0.00000000      0.00000000</v>
   <i type="logical" name="LNICSALL"> T  </i>
   <i type="logical" name="ORBITALMAG"> F  </i>
   <i type="logical" name="LMAGBLOCH"> F  </i>
   <i type="logical" name="LCHIMAG"> F  </i>
   <i type="logical" name="LGAUGE"> T  </i>
   <i type="int" name="MAGATOM">     0</i>
   <v name="MAGDIPOL">      0.00000000      0.00000000      0.00000000</v>
   <v name="AVECCONST">      0.00000000      0.00000000      0.00000000</v>
  </separator>
  <separator name="response functions" >
   <i type="logical" name="LFINITE_TEMPERATURE"> F  </i>
   <i type="logical" name="LADDER"> F  </i>
   <i type="logical" name="LRPAFORCE"> F  </i>
   <i type="logical" name="LFXC"> F  </i>
   <i type="logical" name="LHARTREE"> T  </i>
   <i type="int" name="IBSE">     0</i>
   <v type="int" name="KPOINT">    -1     0     0     0</v>
   <i type="logical" name="LTCTC"> F  </i>
   <i type="logical" name="LTCTE"> F  </i>
   <i type="logical" name="LTETE"> F  </i>
   <i type="logical" name="LTRIPLET"> F  </i>
   <i type="logical" name="LFXCEPS"> F  </i>
   <i type="logical" name="LFXHEG"> F  </i>
   <i type="int" name="NATURALO">     2</i>
   <i type="logical" name="LHOLEGF"> F  </i>
   <i type="logical" name="L2ORDER"> F  </i>
   <i type="logical" name="LDMP1"> F  </i>
   <i type="logical" name="LMP2LT"> F  </i>
   <i type="logical" name="LSMP2LT"> F  </i>
   <i type="logical" name="LGWLF"> F  </i>
   <i name="ENCUTGW">     -2.00000000</i>
   <i name="ENCUTGWSOFT">     -2.00000000</i>
   <i name="ENCUTLF">     -1.00000000</i>
   <i type="logical" name="LESF_SPLINES"> F  </i>
   <i type="int" name="LMAXMP2">    -1</i>
   <i name="SCISSOR">      0.00000000</i>
   <i type="int" name="NOMEGA">     0</i>
   <i type="int" name="NOMEGAR">     0</i>
   <i type="int" name="NBANDSGW">    -1</i>
   <i type="int" name="NBANDSO">    -1</i>
   <i type="int" name="NBANDSV">    -1</i>
   <i type="int" name="NELMGW">     1</i>
   <i type="int" name="NELMHF">     1</i>
   <i type="int" name="DIM">     3</i>
   <i type="int" name="IESPILON">     4</i>
   <i type="int" name="ANTIRES">     0</i>
   <i name="OMEGAMAX">    -30.00000000</i>
   <i name="OMEGAMIN">    -30.00000000</i>
   <i name="OMEGATL">   -200.00000000</i>
   <i type="int" name="OMEGAGRID">     0</i>
   <i name="CSHIFT">     -0.10000000</i>
   <i type="logical" name="LSELFENERGY"> F  </i>
   <i type="logical" name="LSPECTRAL"> F  </i>
   <i type="logical" name="LSPECTRALGW"> F  </i>
   <i type="logical" name="LSINGLES"> F  </i>
   <i type="logical" name="LFERMIGW"> F  </i>
   <i type="logical" name="ODDONLYGW"> F  </i>
   <i type="logical" name="EVENONLYGW"> F  </i>
   <i type="int" name="NKREDLFX">     1</i>
   <i type="int" name="NKREDLFY">     1</i>
   <i type="int" name="NKREDLFZ">     1</i>
   <i type="int" name="MAXMEM">  2800</i>
   <i type="int" name="TELESCOPE">     0</i>
   <i type="int" name="NTAUPAR">    -1</i>
   <i type="int" name="NOMEGAPAR">    -1</i>
   <i name="DAMP_NEWTON">      0.80000001</i>
   <i name="LAMBDA">      1.00000000</i>
  </separator>
  <separator name="External order field" >
   <i name="OFIELD_KAPPA">      0.00000000</i>
   <v name="OFIELD_K">      0.00000000      0.00000000      0.00000000</v>
   <i name="OFIELD_Q6_NEAR">      0.00000000</i>
   <i name="OFIELD_Q6_FAR">      0.00000000</i>
   <i name="OFIELD_A">      0.00000000</i>
  </separator>
  <separator name="optional k-points parameters" >
   <i type="int" name="KPOINTS_OPT_MODE">     1</i>
   <i type="logical" name="LKPOINTS_OPT"> F  </i>
  </separator>
 </parameters>
 <atominfo>
  <atoms>      18 </atoms>
  <types>       3 </types>
  <array name="atoms" >
   <dimension dim="1">ion</dimension>
   <field type="string">element</field>
   <field type="int">atomtype</field>
   <set>
    <rc><c>C </c><c>   1</c></rc>
    <rc><c>C </c><c>   1</c></rc>
    <rc><c>C </c><c>   1</c></rc>
    <rc><c>C </c><c>   1</c></rc>
    <rc><c>C </c><c>   1</c></rc>
    <rc><c>C </c><c>   1</c></rc>
    <rc><c>C </c><c>   1</c></rc>
    <rc><c>C </c><c>   1</c></rc>
    <rc><c>H </c><c>   2</c></rc>
    <rc><c>H </c><c>   2</c></rc>
    <rc><c>H </c><c>   2</c></rc>
    <rc><c>H </c><c>   2</c></rc>
    <rc><c>H </c><c>   2</c></rc>
    <rc><c>H </c><c>   2</c></rc>
    <rc><c>H </c><c>   2</c></rc>
    <rc><c>H </c><c>   2</c></rc>
    <rc><c>N </c><c>   3</c></rc>
    <rc><c>N </c><c>   3</c></rc>
   </set>
  </array>
  <array name="atomtypes" >
   <dimension dim="1">type</dimension>
   <field type="int">atomspertype</field>
   <field type="string">element</field>
   <field>mass</field>
   <field>valence</field>
   <field type="string">pseudopotential</field>
   <set>
    <rc><c>   8</c><c>C </c><c>     12.01100000</c><c>      4.00000000</c><c>  PAW_PBE C 08Apr2002                   </c></rc>
    <rc><c>   8</c><c>H </c><c>      1.00000000</c><c>      1.00000000</c><c>  PAW_PBE H 15Jun2001                   </c></rc>
    <rc><c>   2</c><c>N </c><c>     14.00100000</c><c>      5.00000000</c><c>  PAW_PBE N 08Apr2002                   </c></rc>
   </set>
  </array>
 </atominfo>
 <structure name="initialpos" >
  <crystal>
   <varray name="basis" >
    <v>      15.00000000       0.00000000       0.00000000 </v>
    <v>       0.00000000      15.00000000       0.00000000 </v>
    <v>       0.00000000       0.00000000      15.00000000 </v>
   </varray>
   <i name="volume">   3375.00000000 </i>
   <varray name="rec_basis" >
    <v>       0.06666667       0.00000000       0.00000000 </v>
    <v>       0.00000000       0.06666667       0.00000000 </v>
    <v>       0.00000000       0.00000000       0.06666667 </v>
   </varray>
  </crystal>
  <varray name="positions" >
   <v>       0.37242396       0.54096297       0.58284089 </v>
   <v>       0.36975938       0.45209472       0.57487393 </v>
   <v>       0.45469672       0.40227934       0.58997436 </v>
   <v>       0.46222243       0.58335030       0.59558623 </v>
   <v>       0.52313750       0.54427582       0.52185737 </v>
   <v>       0.53837736       0.44573947       0.54620566 </v>
   <v>       0.60538556       0.59456777       0.51405142 </v>
   <v>       0.57004854       0.38918067       0.47440430 </v>
   <v>       0.31018261       0.41473849       0.55608465 </v>
   <v>       0.47062383       0.40340855       0.66141949 </v>
   <v>       0.44949235       0.33227855       0.57262687 </v>
   <v>       0.31434401       0.58397375       0.57520535 </v>
   <v>       0.49392254       0.56619849       0.65916416 </v>
   <v>       0.45940096       0.65564645       0.59260662 </v>
   <v>       0.49118845       0.54929990       0.45629883 </v>
   <v>       0.59012838       0.44650624       0.59756022 </v>
   <v>       0.66729095       0.64128692       0.51192094 </v>
   <v>       0.58555087       0.33485618       0.42113525 </v>
  </varray>
 </structure>
 <calculation>
  <scstep>
   <time name="dav">    3.87    3.98</time>
   <time name="total">    6.14    6.56</time>
   <energy>
    <i name="alphaZ">      3.36120243 </i>
    <i name="ewald">   3146.70800171 </i>
    <i name="hartreedc">  -4390.31884829 </i>
    <i name="XCdc">    160.95197647 </i>
    <i name="pawpsdc">   1295.11405375 </i>
    <i name="pawaedc">  -1302.12229068 </i>
    <i name="eentropy">     -0.00996098 </i>
    <i name="bandstr">   -267.49767330 </i>
    <i name="atom">   1805.79685712 </i>
    <i name="e_fr_energy">    451.98331824 </i>
    <i name="e_wo_entrp">    451.99327922 </i>
    <i name="e_0_energy">    451.98829873 </i>
   </energy>
  </scstep>
  <scstep>
   <time name="dav">    4.17    4.18</time>
   <time name="total">    4.17    4.19</time>
   <energy>
    <i name="e_fr_energy">    102.51548028 </i>
    <i name="e_wo_entrp">    102.51548028 </i>
    <i name="e_0_energy">    102.51548028 </i>
   </energy>
  </scstep>
  <scstep>
   <time name="dav">    3.75    3.91</time>
   <time name="total">    3.75    3.93</time>
   <energy>
    <i name="e_fr_energy">   -105.70970811 </i>
    <i name="e_wo_entrp">   -105.70970811 </i>
    <i name="e_0_energy">   -105.70970811 </i>
   </energy>
  </scstep>
  <scstep>
   <time name="dav">    2.66    2.67</time>
   <time name="total">    2.66    2.67</time>
   <energy>
    <i name="e_fr_energy">   -126.62946294 </i>
    <i name="e_wo_entrp">   -126.62946294 </i>
    <i name="e_0_energy">   -126.62946294 </i>
   </energy>
  </scstep>
  <scstep>
   <time name="dav">    2.60    2.60</time>
   <time name="total">    2.88    2.88</time>
   <energy>
    <i name="e_fr_energy">   -127.02326437 </i>
    <i name="e_wo_entrp">   -127.02326437 </i>
    <i name="e_0_energy">   -127.02326437 </i>
   </energy>
  </scstep>
  <scstep>
   <time name="diag">    0.36    0.36</time>
   <time name="diis">    2.08    2.08</time>
   <time name="orth">    0.01    0.01</time>
   <time name="total">    4.09    4.09</time>
   <energy>
    <i name="e_fr_energy">   -118.11095786 </i>
    <i name="e_wo_entrp">   -118.11095786 </i>
    <i name="e_0_energy">   -118.11095786 </i>
   </energy>
  </scstep>
  <scstep>
   <time name="diag">    0.38    0.38</time>
   <time name="diis">    2.22    2.22</time>
   <time name="orth">    0.01    0.01</time>
   <time name="total">    4.45    4.45</time>
   <energy>
    <i name="e_fr_energy">   -115.96149984 </i>
    <i name="e_wo_entrp">   -115.96149984 </i>
    <i name="e_0_energy">   -115.96149984 </i>
   </energy>
  </scstep>
  <scstep>
   <time name="diag">    0.38    0.38</time>
   <time name="diis">    2.37    2.37</time>
   <time name="orth">    0.01    0.01</time>
   <time name="total">    4.56    4.56</time>
   <energy>
    <i name="e_fr_energy">   -115.78292912 </i>
    <i name="e_wo_entrp">   -115.78292912 </i>
    <i name="e_0_energy">   -115.78292912 </i>
   </energy>
  </scstep>
  <scstep>
   <time name="diag">    0.42    0.42</time>
   <time name="diis">    2.22    2.22</time>
   <time name="orth">    0.01    0.01</time>
   <time name="total">    4.39    4.39</time>
   <energy>
    <i name="e_fr_energy">   -115.70303941 </i>
    <i name="e_wo_entrp">   -115.70303941 </i>
    <i name="e_0_energy">   -115.70303941 </i>
   </energy>
  </scstep>
  <scstep>
   <time name="diag">    0.37    0.37</time>
   <time name="diis">    2.47    2.47</time>
   <time name="orth">    0.01    0.01</time>
   <time name="total">    4.54    4.54</time>
   <energy>
    <i name="e_fr_energy">   -115.71144576 </i>
    <i name="e_wo_entrp">   -115.71144576 </i>
    <i name="e_0_energy">   -115.71144576 </i>
   </energy>
  </scstep>
  <scstep>
   <time name="diag">    0.34    0.34</time>
   <time name="diis">    2.12    2.12</time>
   <time name="orth">    0.01    0.01</time>
   <time name="total">    4.20    4.20</time>
   <energy>
    <i name="e_fr_energy">   -115.72355992 </i>
    <i name="e_wo_entrp">   -115.72355992 </i>
    <i name="e_0_energy">   -115.72355992 </i>
   </energy>
  </scstep>
  <scstep>
   <time name="diag">    0.35    0.35</time>
   <time name="diis">    2.27    2.27</time>
   <time name="orth">    0.01    0.01</time>
   <time name="total">    4.34    4.34</time>
   <energy>
    <i name="e_fr_energy">   -115.72313541 </i>
    <i name="e_wo_entrp">   -115.72313541 </i>
    <i name="e_0_energy">   -115.72313541 </i>
   </energy>
  </scstep>
  <scstep>
   <time name="diag">    0.36    0.36</time>
   <time name="diis">    2.17    2.17</time>
   <time name="orth">    0.01    0.01</time>
   <time name="total">    4.29    4.29</time>
   <energy>
    <i name="e_fr_energy">   -115.73809070 </i>
    <i name="e_wo_entrp">   -115.73809070 </i>
    <i name="e_0_energy">   -115.73809070 </i>
   </energy>
  </scstep>
  <scstep>
   <time name="diag">    0.36    0.36</time>
   <time name="diis">    2.32    2.32</time>
   <time name="orth">    0.01    0.01</time>
   <time name="total">    4.43    4.43</time>
   <energy>
    <i name="e_fr_energy">   -115.73855962 </i>
    <i name="e_wo_entrp">   -115.73855962 </i>
    <i name="e_0_energy">   -115.73855962 </i>
   </energy>
  </scstep>
  <scstep>
   <time name="diag">    0.36    0.36</time>
   <time name="diis">    2.29    2.29</time>
   <time name="orth">    0.01    0.01</time>
   <time name="total">    4.44    4.44</time>
   <energy>
    <i name="e_fr_energy">   -115.74871462 </i>
    <i name="e_wo_entrp">   -115.74871462 </i>
    <i name="e_0_energy">   -115.74871462 </i>
   </energy>
  </scstep>
  <scstep>
   <time name="diag">    0.36    0.36</time>
   <time name="diis">    2.58    2.58</time>
   <time name="orth">    0.01    0.01</time>
   <time name="total">    4.82    4.82</time>
   <energy>
    <i name="e_fr_energy">   -115.74984125 </i>
    <i name="e_wo_entrp">   -115.74984125 </i>
    <i name="e_0_energy">   -115.74984125 </i>
   </energy>
  </scstep>
  <scstep>
   <time name="diag">    0.39    0.39</time>
   <time name="diis">    2.25    2.25</time>
   <time name="orth">    0.01    0.01</time>
   <time name="total">    4.47    4.48</time>
   <energy>
    <i name="e_fr_energy">   -115.75056265 </i>
    <i name="e_wo_entrp">   -115.75056265 </i>
    <i name="e_0_energy">   -115.75056265 </i>
   </energy>
  </scstep>
  <scstep>
   <time name="diag">    0.35    0.35</time>
   <time name="diis">    2.23    2.23</time>
   <time name="orth">    0.01    0.01</time>
   <time name="total">    4.30    4.30</time>
   <energy>
    <i name="e_fr_energy">   -115.75254104 </i>
    <i name="e_wo_entrp">   -115.75254104 </i>
    <i name="e_0_energy">   -115.75254104 </i>
   </energy>
  </scstep>
  <scstep>
   <time name="diag">    0.31    0.31</time>
   <time name="diis">    1.76    1.76</time>
   <time name="orth">    0.01    0.01</time>
   <time name="total">    3.76    3.76</time>
   <energy>
    <i name="e_fr_energy">   -115.75306578 </i>
    <i name="e_wo_entrp">   -115.75306578 </i>
    <i name="e_0_energy">   -115.75306578 </i>
   </energy>
  </scstep>
  <scstep>
   <time name="diag">    0.30    0.30</time>
   <time name="diis">    1.77    1.77</time>
   <time name="orth">    0.01    0.01</time>
   <time name="total">    3.74    3.74</time>
   <energy>
    <i name="e_fr_energy">   -115.75340113 </i>
    <i name="e_wo_entrp">   -115.75340113 </i>
    <i name="e_0_energy">   -115.75340113 </i>
   </energy>
  </scstep>
  <scstep>
   <time name="diag">    0.33    0.33</time>
   <time name="diis">    1.49    1.49</time>
   <time name="orth">    0.01    0.01</time>
   <time name="total">    3.53    3.53</time>
   <energy>
    <i name="e_fr_energy">   -115.75341826 </i>
    <i name="e_wo_entrp">   -115.75341826 </i>
    <i name="e_0_energy">   -115.75341826 </i>
   </energy>
  </scstep>
  <scstep>
   <time name="diag">    0.36    0.36</time>
   <time name="diis">    1.53    1.53</time>
   <time name="orth">    0.01    0.01</time>
   <time name="total">    3.75    3.75</time>
   <energy>
    <i name="e_fr_energy">   -115.75349604 </i>
    <i name="e_wo_entrp">   -115.75349604 </i>
    <i name="e_0_energy">   -115.75349604 </i>
   </energy>
  </scstep>
  <scstep>
   <time name="diag">    0.34    0.34</time>
   <time name="diis">    1.36    1.36</time>
   <time name="orth">    0.01    0.01</time>
   <time name="total">    3.64    3.64</time>
   <energy>
    <i name="e_fr_energy">   -115.75352603 </i>
    <i name="e_wo_entrp">   -115.75352603 </i>
    <i name="e_0_energy">   -115.75352603 </i>
   </energy>
  </scstep>
  <scstep>
   <time name="diag">    0.36    0.36</time>
   <time name="diis">    1.34    1.34</time>
   <time name="orth">    0.01    0.01</time>
   <time name="total">    3.68    3.69</time>
   <energy>
    <i name="e_fr_energy">   -115.75354057 </i>
    <i name="e_wo_entrp">   -115.75354057 </i>
    <i name="e_0_energy">   -115.75354057 </i>
   </energy>
  </scstep>
  <scstep>
   <time name="diag">    0.28    0.28</time>
   <time name="diis">    0.91    0.91</time>
   <time name="orth">    0.01    0.01</time>
   <time name="total">    2.48    2.48</time>
   <energy>
    <i name="alphaZ">      3.36120243 </i>
    <i name="ewald">   3146.70800171 </i>
    <i name="hartreedc">  -4594.44296717 </i>
    <i name="XCdc">    171.07611263 </i>
    <i name="pawpsdc">   4404.00747507 </i>
    <i name="pawaedc">  -4412.34662518 </i>
    <i name="eentropy">     -0.00000000 </i>
    <i name="bandstr">   -639.91360399 </i>
    <i name="atom">   1805.79685712 </i>
    <i name="e_fr_energy">   -115.75354738 </i>
    <i name="e_wo_entrp">   -115.75354738 </i>
    <i name="e_0_energy">   -115.75354738 </i>
   </energy>
  </scstep>
  <structure>
   <crystal>
    <varray name="basis" >
     <v>      15.00000000       0.00000000       0.00000000 </v>
     <v>       0.00000000      15.00000000       0.00000000 </v>
     <v>       0.00000000       0.00000000      15.00000000 </v>
    </varray>
    <i name="volume">   3375.00000000 </i>
    <varray name="rec_basis" >
     <v>       0.06666667       0.00000000       0.00000000 </v>
     <v>       0.00000000       0.06666667       0.00000000 </v>
     <v>       0.00000000       0.00000000       0.06666667 </v>
    </varray>
   </crystal>
   <varray name="positions" >
    <v>       0.37242396       0.54096297       0.58284089 </v>
    <v>       0.36975938       0.45209472       0.57487393 </v>
    <v>       0.45469672       0.40227934       0.58997436 </v>
    <v>       0.46222243       0.58335030       0.59558623 </v>
    <v>       0.52313750       0.54427582       0.52185737 </v>
    <v>       0.53837736       0.44573947       0.54620566 </v>
    <v>       0.60538556       0.59456777       0.51405142 </v>
    <v>       0.57004854       0.38918067       0.47440430 </v>
    <v>       0.31018261       0.41473849       0.55608465 </v>
    <v>       0.47062383       0.40340855       0.66141949 </v>
    <v>       0.44949235       0.33227855       0.57262687 </v>
    <v>       0.31434401       0.58397375       0.57520535 </v>
    <v>       0.49392254       0.56619849       0.65916416 </v>
    <v>       0.45940096       0.65564645       0.59260662 </v>
    <v>       0.49118845       0.54929990       0.45629883 </v>
    <v>       0.59012838       0.44650624       0.59756022 </v>
    <v>       0.66729095       0.64128692       0.51192094 </v>
    <v>       0.58555087       0.33485618       0.42113525 </v>
   </varray>
  </structure>
  <varray name="forces" >
   <v>      -0.05148055       0.05745510       0.12293522 </v>
   <v>      -0.01540783       0.01252927      -0.12366432 </v>
   <v>      -0.07391900       0.07462478       0.36140785 </v>
   <v>      -0.24776306      -0.01884401      -0.31867321 </v>
   <v>       0.11045347       0.07580683      -0.20326378 </v>
   <v>       0.35273954      -0.12056123      -0.01591909 </v>
   <v>      -0.05843359      -0.01275175       0.22870322 </v>
   <v>      -0.29089675       0.02001289      -0.02798651 </v>
   <v>      -0.08525859       0.10634147       0.16135745 </v>
   <v>      -0.20534116      -0.06802255       0.26888480 </v>
   <v>       0.00381556      -0.34472704      -0.24796074 </v>
   <v>      -0.09205951      -0.06301379      -0.06558654 </v>
   <v>      -0.02506009      -0.02658381       0.34807946 </v>
   <v>      -0.00742990       0.35579135      -0.12169749 </v>
   <v>      -0.34804903      -0.02100831      -0.06864570 </v>
   <v>       0.32810919      -0.09098686       0.13862142 </v>
   <v>       0.43088250       0.17107623      -0.08075617 </v>
   <v>       0.27509882      -0.10713856      -0.35583586 </v>
  </varray>
  <varray name="stress" >
   <v>       0.05759313      -0.04117473      -0.18989773 </v>
   <v>      -0.04117473      -0.11909133       0.02620901 </v>
   <v>      -0.18989773       0.02620902      -0.36812884 </v>
  </varray>
  <energy>
   <i name="e_fr_energy">   -115.99758354 </i>
   <i name="e_wo_entrp">   -115.99758354 </i>
   <i name="e_0_energy">   -115.99758354 </i>
  </energy>
  <time name="totalsc">  139.51  140.80</time>
 </calculation>
 <calculation>
  <scstep>
   <time name="dav">    3.95    4.16</time>
   <time name="total">    6.33    6.54</time>
   <energy>
    <i name="alphaZ">      3.36120243 </i>
    <i name="ewald">   3141.53920601 </i>
    <i name="hartreedc">  -4590.47468303 </i>
    <i name="XCdc">    171.00767450 </i>
    <i name="pawpsdc">   4403.99702138 </i>
    <i name="pawaedc">  -4412.33615860 </i>
    <i name="eentropy">     -0.00000000 </i>
    <i name="bandstr">   -638.65923500 </i>
    <i name="atom">   1805.79685712 </i>
    <i name="e_fr_energy">   -115.76811520 </i>
    <i name="e_wo_entrp">   -115.76811520 </i>
    <i name="e_0_energy">   -115.76811520 </i>
   </energy>
  </scstep>
  <scstep>
   <time name="diag">    0.73    0.73</time>
   <time name="diis">    3.59    3.60</time>
   <time name="orth">    0.02    0.02</time>
   <time name="total">    6.98    7.15</time>
   <energy>
    <i name="e_fr_energy">   -115.76819294 </i>
    <i name="e_wo_entrp">   -115.76819294 </i>
    <i name="e_0_energy">   -115.76819294 </i>
   </energy>
  </scstep>
  <scstep>
   <time name="diag">    1.02    1.02</time>
   <time name="diis">    3.90    3.93</time>
   <time name="orth">    0.01    0.01</time>
   <time name="total">    7.38    7.45</time>
   <energy>
    <i name="e_fr_energy">   -115.76813835 </i>
    <i name="e_wo_entrp">   -115.76813835 </i>
    <i name="e_0_energy">   -115.76813835 </i>
   </energy>
  </scstep>
  <scstep>
   <time name="diag">    0.45    0.57</time>
   <time name="diis">    2.44    2.44</time>
   <time name="orth">    0.01    0.01</time>
   <time name="total">    5.08    5.29</time>
   <energy>
    <i name="e_fr_energy">   -115.76817494 </i>
    <i name="e_wo_entrp">   -115.76817494 </i>
    <i name="e_0_energy">   -115.76817494 </i>
   </energy>
  </scstep>
  <scstep>
   <time name="diag">    0.38    0.38</time>
   <time name="diis">    2.78    2.79</time>
   <time name="orth">    0.03    0.03</time>
   <time name="total">    5.97    5.98</time>
   <energy>
    <i name="e_fr_energy">   -115.76818624 </i>
    <i name="e_wo_entrp">   -115.76818624 </i>
    <i name="e_0_energy">   -115.76818624 </i>
   </energy>
  </scstep>
  <scstep>
   <time name="diag">    0.24    0.24</time>
   <time name="diis">    1.21    1.21</time>
   <time name="orth">    0.01    0.01</time>
   <time name="total">    2.71    2.71</time>
   <energy>
    <i name="alphaZ">      3.36120243 </i>
    <i name="ewald">   3141.53920601 </i>
    <i name="hartreedc">  -4589.59252403 </i>
    <i name="XCdc">    170.96373873 </i>
    <i name="pawpsdc">   4382.52541437 </i>
    <i name="pawaedc">  -4390.84918587 </i>
    <i name="eentropy">     -0.00000000 </i>
    <i name="bandstr">   -639.51290242 </i>
    <i name="atom">   1805.79685712 </i>
    <i name="e_fr_energy">   -115.76819366 </i>
    <i name="e_wo_entrp">   -115.76819366 </i>
    <i name="e_0_energy">   -115.76819366 </i>
   </energy>
  </scstep>
  <structure>
   <crystal>
    <varray name="basis" >
     <v>      15.00000000       0.00000000       0.00000000 </v>
     <v>       0.00000000      15.00000000       0.00000000 </v>
     <v>       0.00000000       0.00000000      15.00000000 </v>
    </varray>
    <i name="volume">   3375.00000000 </i>
    <varray name="rec_basis" >
     <v>       0.06666667       0.00000000       0.00000000 </v>
     <v>       0.00000000       0.06666667       0.00000000 </v>
     <v>       0.00000000       0.00000000       0.06666667 </v>
    </varray>
   </crystal>
   <varray name="positions" >
    <v>       0.37239054       0.54100152       0.58291722 </v>
    <v>       0.36974807       0.45210454       0.57478912 </v>
    <v>       0.45464610       0.40232637       0.59020284 </v>
    <v>       0.46206273       0.58333889       0.59538131 </v>
    <v>       0.52321036       0.54432510       0.52172884 </v>
    <v>       0.53860643       0.44566342       0.54620122 </v>
    <v>       0.60534930       0.59456129       0.51420237 </v>
    <v>       0.56987712       0.38919481       0.47439554 </v>
    <v>       0.31012545       0.41481025       0.55618265 </v>
    <v>       0.47048397       0.40335661       0.66159059 </v>
    <v>       0.44949044       0.33205711       0.57245664 </v>
    <v>       0.31428457       0.58393537       0.57516232 </v>
    <v>       0.49390400       0.56618192       0.65938919 </v>
    <v>       0.45939615       0.65587605       0.59252857 </v>
    <v>       0.49096838       0.54928450       0.45625559 </v>
    <v>       0.59033608       0.44645226       0.59766253 </v>
    <v>       0.66756800       0.64140102       0.51187548 </v>
    <v>       0.58575434       0.33478796       0.42091718 </v>
   </varray>
  </structure>
  <varray name="forces" >
   <v>      -0.08549499       0.00877890       0.06805954 </v>
   <v>       0.00449881       0.05247117      -0.07493349 </v>
   <v>      -0.03941184      -0.08637861       0.20673069 </v>
   <v>      -0.10168840       0.06919882      -0.11192039 </v>
   <v>       0.03457421       0.00716416      -0.15092523 </v>
   <v>       0.23003363      -0.05082258       0.06935074 </v>
   <v>       0.42718355       0.36005041       0.16586788 </v>
   <v>      -0.13458096      -0.35004655      -0.38399481 </v>
   <v>      -0.09461615       0.09157995       0.15075872 </v>
   <v>      -0.19133576      -0.06303492       0.29319543 </v>
   <v>       0.01134961      -0.18118438      -0.18470691 </v>
   <v>      -0.09686330      -0.05655498      -0.06116293 </v>
   <v>      -0.10057480       0.01886545       0.17295889 </v>
   <v>      -0.01103419       0.24223958      -0.12243959 </v>
   <v>      -0.30509058      -0.02591444      -0.05967571 </v>
   <v>       0.31156877      -0.09103376       0.10729425 </v>
   <v>      -0.02010654      -0.16772601      -0.05190212 </v>
   <v>       0.16158893       0.22234781      -0.03255495 </v>
  </varray>
  <varray name="stress" >
   <v>      -0.18475947      -0.12164832      -0.18388213 </v>
   <v>      -0.12164832      -0.51044133      -0.05340363 </v>
   <v>      -0.18388213      -0.05340362      -0.58356334 </v>
  </varray>
  <energy>
   <i name="e_fr_energy">   -116.01213564 </i>
   <i name="e_wo_entrp">   -116.01213564 </i>
   <i name="e_0_energy">   -116.01213564 </i>
  </energy>
  <time name="totalsc">   55.99   56.68</time>
 </calculation>
 <calculation>
  <scstep>
   <time name="dav">    5.52    5.52</time>
   <time name="total">    8.61    8.62</time>
   <energy>
    <i name="alphaZ">      3.36120243 </i>
    <i name="ewald">   3139.78821898 </i>
    <i name="hartreedc">  -4587.46097206 </i>
    <i name="XCdc">    170.95850644 </i>
    <i name="pawpsdc">   4383.05821534 </i>
    <i name="pawaedc">  -4391.38171384 </i>
    <i name="eentropy">     -0.00000000 </i>
    <i name="bandstr">   -639.89798131 </i>
    <i name="atom">   1805.79685712 </i>
    <i name="e_fr_energy">   -115.77766690 </i>
    <i name="e_wo_entrp">   -115.77766690 </i>
    <i name="e_0_energy">   -115.77766690 </i>
   </energy>
  </scstep>
  <scstep>
   <time name="diag">    0.93    0.93</time>
   <time name="diis">    4.84    4.84</time>
   <time name="orth">    0.03    0.03</time>
   <time name="total">    9.29    9.30</time>
   <energy>
    <i name="e_fr_energy">   -115.77731572 </i>
    <i name="e_wo_entrp">   -115.77731572 </i>
    <i name="e_0_energy">   -115.77731572 </i>
   </energy>
  </scstep>
  <scstep>
   <time name="diag">    0.62    0.62</time>
   <time name="diis">    2.53    2.53</time>
   <time name="orth">    0.01    0.01</time>
   <time name="total">    6.36    6.37</time>
   <energy>
    <i name="e_fr_energy">   -115.77719422 </i>
    <i name="e_wo_entrp">   -115.77719422 </i>
    <i name="e_0_energy">   -115.77719422 </i>
   </energy>
  </scstep>
  <scstep>
   <time name="diag">    0.33    0.33</time>
   <time name="diis">    1.92    1.92</time>
   <time name="orth">    0.02    0.02</time>
   <time name="total">    4.15    4.15</time>
   <energy>
    <i name="e_fr_energy">   -115.77721787 </i>
    <i name="e_wo_entrp">   -115.77721787 </i>
    <i name="e_0_energy">   -115.77721787 </i>
   </energy>
  </scstep>
  <scstep>
   <time name="diag">    0.32    0.32</time>
   <time name="diis">    1.66    1.66</time>
   <time name="orth">    0.01    0.01</time>
   <time name="total">    3.58    3.58</time>
   <energy>
    <i name="alphaZ">      3.36120243 </i>
    <i name="ewald">   3139.78821898 </i>
    <i name="hartreedc">  -4587.88607822 </i>
    <i name="XCdc">    170.98812682 </i>
    <i name="pawpsdc">   4393.00702435 </i>
    <i name="pawaedc">  -4401.34147690 </i>
    <i name="eentropy">     -0.00000000 </i>
    <i name="bandstr">   -639.49109129 </i>
    <i name="atom">   1805.79685712 </i>
    <i name="e_fr_energy">   -115.77721671 </i>
    <i name="e_wo_entrp">   -115.77721671 </i>
    <i name="e_0_energy">   -115.77721671 </i>
   </energy>
  </scstep>
  <structure>
   <crystal>
    <varray name="basis" >
     <v>      15.00000000       0.00000000       0.00000000 </v>
     <v>       0.00000000      15.00000000       0.00000000 </v>
     <v>       0.00000000       0.00000000      15.00000000 </v>
    </varray>
    <i name="volume">   3375.00000000 </i>
    <varray name="rec_basis" >
     <v>       0.06666667       0.00000000       0.00000000 </v>
     <v>       0.00000000       0.06666667       0.00000000 </v>
     <v>       0.00000000       0.00000000       0.06666667 </v>
    </varray>
   </crystal>
   <varray name="positions" >
    <v>       0.37233422       0.54100701       0.58296264 </v>
    <v>       0.36975131       0.45213880       0.57474070 </v>
    <v>       0.45462070       0.40226958       0.59033996 </v>
    <v>       0.46199572       0.58338440       0.59530747 </v>
    <v>       0.52323281       0.54432973       0.52162886 </v>
    <v>       0.53875773       0.44562961       0.54624587 </v>
    <v>       0.60563084       0.59479846       0.51431104 </v>
    <v>       0.56978533       0.38896366       0.47414049 </v>
    <v>       0.31006348       0.41487001       0.55628323 </v>
    <v>       0.47035926       0.40331658       0.66178433 </v>
    <v>       0.44949877       0.33193755       0.57233683 </v>
    <v>       0.31422071       0.58389764       0.57512215 </v>
    <v>       0.49383812       0.56619428       0.65950306 </v>
    <v>       0.45938887       0.65603570       0.59244775 </v>
    <v>       0.49076641       0.54926777       0.45621605 </v>
    <v>       0.59054224       0.44639133       0.59773078 </v>
    <v>       0.66755476       0.64128960       0.51184000 </v>
    <v>       0.58585582       0.33493450       0.42089366 </v>
   </varray>
  </structure>
  <varray name="forces" >
   <v>      -0.06722712       0.02732610       0.04476153 </v>
   <v>       0.00798338       0.01819618      -0.05065680 </v>
   <v>      -0.00469539      -0.09714041       0.15263161 </v>
   <v>      -0.04491423       0.08717273      -0.05463211 </v>
   <v>       0.11489121       0.05480223      -0.11041637 </v>
   <v>       0.19845879      -0.09755853       0.00981211 </v>
   <v>      -0.31871063      -0.18210641       0.16612873 </v>
   <v>      -0.27555046       0.18693077       0.17641323 </v>
   <v>      -0.08998858       0.08825723       0.14544661 </v>
   <v>      -0.18921902      -0.06836847       0.26833170 </v>
   <v>       0.01179218      -0.12341696      -0.15376254 </v>
   <v>      -0.10161564      -0.05303621      -0.05795399 </v>
   <v>      -0.12642670       0.04054179       0.10248559 </v>
   <v>      -0.01277914       0.18503263      -0.11915864 </v>
   <v>      -0.26200056      -0.02469831      -0.04248677 </v>
   <v>       0.29104264      -0.09518232       0.07289295 </v>
   <v>       0.58514835       0.28890343      -0.06601532 </v>
   <v>       0.28381094      -0.23565547      -0.48382152 </v>
  </varray>
  <varray name="stress" >
   <v>      -0.07233992       0.00374374      -0.22999051 </v>
   <v>       0.00374374      -0.34411790       0.08643140 </v>
   <v>      -0.22999051       0.08643140      -0.55679291 </v>
  </varray>
  <energy>
   <i name="e_fr_energy">   -116.02124119 </i>
   <i name="e_wo_entrp">   -116.02124119 </i>
   <i name="e_0_energy">   -116.02124119 </i>
  </energy>
  <time name="totalsc">   44.22   44.26</time>
 </calculation>
 <calculation>
  <scstep>
   <time name="dav">    2.18    2.18</time>
   <time name="total">    3.97    3.97</time>
   <energy>
    <i name="alphaZ">      3.36120243 </i>
    <i name="ewald">   3132.19211754 </i>
    <i name="hartreedc">  -4581.90180192 </i>
    <i name="XCdc">    170.89325028 </i>
    <i name="pawpsdc">   4392.65292576 </i>
    <i name="pawaedc">  -4400.98747827 </i>
    <i name="eentropy">     -0.00000000 </i>
    <i name="bandstr">   -637.79843088 </i>
    <i name="atom">   1805.79685712 </i>
    <i name="e_fr_energy">   -115.79135794 </i>
    <i name="e_wo_entrp">   -115.79135794 </i>
    <i name="e_0_energy">   -115.79135794 </i>
   </energy>
  </scstep>
  <scstep>
   <time name="diag">    0.37    0.37</time>
   <time name="diis">    2.19    2.19</time>
   <time name="orth">    0.01    0.01</time>
   <time name="total">    4.34    4.34</time>
   <energy>
    <i name="e_fr_energy">   -115.79149762 </i>
    <i name="e_wo_entrp">   -115.79149762 </i>
    <i name="e_0_energy">   -115.79149762 </i>
   </energy>
  </scstep>
  <scstep>
   <time name="diag">    0.35    0.35</time>
   <time name="diis">    2.28    2.28</time>
   <time name="orth">    0.01    0.01</time>
   <time name="total">    4.45    4.45</time>
   <energy>
    <i name="e_fr_energy">   -115.79145006 </i>
    <i name="e_wo_entrp">   -115.79145006 </i>
    <i name="e_0_energy">   -115.79145006 </i>
   </energy>
  </scstep>
  <scstep>
   <time name="diag">    0.40    0.40</time>
   <time name="diis">    2.25    2.25</time>
   <time name="orth">    0.01    0.01</time>
   <time name="total">    4.42    4.42</time>
   <energy>
    <i name="e_fr_energy">   -115.79152110 </i>
    <i name="e_wo_entrp">   -115.79152110 </i>
    <i name="e_0_energy">   -115.79152110 </i>
   </energy>
  </scstep>
  <scstep>
   <time name="diag">    0.38    0.38</time>
   <time name="diis">    2.30    2.30</time>
   <time name="orth">    0.01    0.01</time>
   <time name="total">    4.46    4.46</time>
   <energy>
    <i name="e_fr_energy">   -115.79154738 </i>
    <i name="e_wo_entrp">   -115.79154738 </i>
    <i name="e_0_energy">   -115.79154738 </i>
   </energy>
  </scstep>
  <scstep>
   <time name="diag">    0.34    0.34</time>
   <time name="diis">    1.76    1.76</time>
   <time name="orth">    0.01    0.01</time>
   <time name="total">    3.84    3.84</time>
   <energy>
    <i name="e_fr_energy">   -115.79155881 </i>
    <i name="e_wo_entrp">   -115.79155881 </i>
    <i name="e_0_energy">   -115.79155881 </i>
   </energy>
  </scstep>
  <scstep>
   <time name="diag">    0.30    0.30</time>
   <time name="diis">    1.62    1.62</time>
   <time name="orth">    0.01    0.01</time>
   <time name="total">    3.37    3.38</time>
   <energy>
    <i name="alphaZ">      3.36120243 </i>
    <i name="ewald">   3132.19211754 </i>
    <i name="hartreedc">  -4580.69178371 </i>
    <i name="XCdc">    170.83668357 </i>
    <i name="pawpsdc">   4362.83808691 </i>
    <i name="pawaedc">  -4371.15157552 </i>
    <i name="eentropy">     -0.00000000 </i>
    <i name="bandstr">   -638.97314903 </i>
    <i name="atom">   1805.79685712 </i>
    <i name="e_fr_energy">   -115.79156070 </i>
    <i name="e_wo_entrp">   -115.79156070 </i>
    <i name="e_0_energy">   -115.79156070 </i>
   </energy>
  </scstep>
  <structure>
   <crystal>
    <varray name="basis" >
     <v>      15.00000000       0.00000000       0.00000000 </v>
     <v>       0.00000000      15.00000000       0.00000000 </v>
     <v>       0.00000000       0.00000000      15.00000000 </v>
    </varray>
    <i name="volume">   3375.00000000 </i>
    <varray name="rec_basis" >
     <v>       0.06666667       0.00000000       0.00000000 </v>
     <v>       0.00000000       0.06666667       0.00000000 </v>
     <v>       0.00000000       0.00000000       0.06666667 </v>
    </varray>
   </crystal>
   <varray name="positions" >
    <v>       0.37224958       0.54102755       0.58302987 </v>
    <v>       0.36976213       0.45217055       0.57468280 </v>
    <v>       0.45460715       0.40216376       0.59054750 </v>
    <v>       0.46192055       0.58347614       0.59521986 </v>
    <v>       0.52332797       0.54437214       0.52147940 </v>
    <v>       0.53899586       0.44553328       0.54627052 </v>
    <v>       0.60557389       0.59481265       0.51449505 </v>
    <v>       0.56949320       0.38895115       0.47408953 </v>
    <v>       0.30996222       0.41496650       0.55646631 </v>
    <v>       0.47015582       0.40325621       0.66210881 </v>
    <v>       0.44952136       0.33177002       0.57216760 </v>
    <v>       0.31410554       0.58383015       0.57505571 </v>
    <v>       0.49370780       0.56623123       0.65964888 </v>
    <v>       0.45937474       0.65627240       0.59230774 </v>
    <v>       0.49043732       0.54924252       0.45615769 </v>
    <v>       0.59089451       0.44627335       0.59780206 </v>
    <v>       0.66797686       0.64142296       0.51175619 </v>
    <v>       0.58607715       0.33485360       0.42050200 </v>
   </varray>
  </structure>
  <varray name="forces" >
   <v>      -0.03152778       0.03224309       0.01076957 </v>
   <v>       0.02063293      -0.00497279      -0.01146031 </v>
   <v>       0.01875815      -0.09905317       0.09834087 </v>
   <v>      -0.00662151       0.10368755       0.01269230 </v>
   <v>       0.00581371      -0.00159248      -0.03828121 </v>
   <v>       0.09416743      -0.04394573       0.09137650 </v>
   <v>       0.37093815       0.32407045       0.07720386 </v>
   <v>      -0.05869714      -0.30910538      -0.31356870 </v>
   <v>      -0.08355818       0.08024460       0.13640961 </v>
   <v>      -0.18232441      -0.07559444       0.22237094 </v>
   <v>       0.01215110      -0.05583768      -0.11223148 </v>
   <v>      -0.10634016      -0.04727440      -0.05298805 </v>
   <v>      -0.14967198       0.06721953       0.02176145 </v>
   <v>      -0.01344449       0.11309999      -0.11409644 </v>
   <v>      -0.20187836      -0.02861906      -0.01078005 </v>
   <v>       0.25434387      -0.09532377       0.02649399 </v>
   <v>      -0.06175148      -0.18998730      -0.02309713 </v>
   <v>       0.11901016       0.23074100      -0.02091571 </v>
  </varray>
  <varray name="stress" >
   <v>      -0.45026396      -0.12888672      -0.20587891 </v>
   <v>      -0.12888672      -0.78378449      -0.05381729 </v>
   <v>      -0.20587891      -0.05381729      -0.83731732 </v>
  </varray>
  <energy>
   <i name="e_fr_energy">   -116.03546356 </i>
   <i name="e_wo_entrp">   -116.03546356 </i>
   <i name="e_0_energy">   -116.03546356 </i>
  </energy>
  <time name="totalsc">   70.68   71.34</time>
 </calculation>
 <calculation>
  <scstep>
   <time name="dav">    2.43    2.46</time>
   <time name="total">    4.51    4.55</time>
   <energy>
    <i name="alphaZ">      3.36120243 </i>
    <i name="ewald">   3120.13644786 </i>
    <i name="hartreedc">  -4569.97198479 </i>
    <i name="XCdc">    170.72237143 </i>
    <i name="pawpsdc">   4362.14172309 </i>
    <i name="pawaedc">  -4370.45527288 </i>
    <i name="eentropy">     -0.00000000 </i>
    <i name="bandstr">   -637.54319500 </i>
    <i name="atom">   1805.79685712 </i>
    <i name="e_fr_energy">   -115.81185073 </i>
    <i name="e_wo_entrp">   -115.81185073 </i>
    <i name="e_0_energy">   -115.81185073 </i>
   </energy>
  </scstep>
  <scstep>
   <time name="diag">    0.55    0.55</time>
   <time name="diis">    3.07    3.09</time>
   <time name="orth">    0.02    0.03</time>
   <time name="total">    5.97    6.01</time>
   <energy>
    <i name="e_fr_energy">   -115.81258650 </i>
    <i name="e_wo_entrp">   -115.81258650 </i>
    <i name="e_0_energy">   -115.81258650 </i>
   </energy>
  </scstep>
  <scstep>
   <time name="diag">    0.70    0.82</time>
   <time name="diis">    3.20    3.27</time>
   <time name="orth">    0.02    0.02</time>
   <time name="total">    6.29    6.48</time>
   <energy>
    <i name="e_fr_energy">   -115.81280456 </i>
    <i name="e_wo_entrp">   -115.81280456 </i>
    <i name="e_0_energy">   -115.81280456 </i>
   </energy>
  </scstep>
  <scstep>
   <time name="diag">    0.70    0.75</time>
   <time name="diis">    4.63    4.85</time>
   <time name="orth">    0.02    0.03</time>
   <time name="total">    7.79    8.07</time>
   <energy>
    <i name="e_fr_energy">   -115.81300586 </i>
    <i name="e_wo_entrp">   -115.81300586 </i>
    <i name="e_0_energy">   -115.81300586 </i>
   </energy>
  </scstep>
  <scstep>
   <time name="diag">    0.48    0.48</time>
   <time name="diis">    3.36    3.48</time>
   <time name="orth">    0.02    0.03</time>
   <time name="total">    6.20    6.39</time>
   <energy>
    <i name="e_fr_energy">   -115.81304590 </i>
    <i name="e_wo_entrp">   -115.81304590 </i>
    <i name="e_0_energy">   -115.81304590 </i>
   </energy>
  </scstep>
  <scstep>
   <time name="diag">    0.44    0.44</time>
   <time name="diis">    2.44    2.45</time>
   <time name="orth">    0.02    0.03</time>
   <time name="total">    5.12    5.25</time>
   <energy>
    <i name="e_fr_energy">   -115.81305860 </i>
    <i name="e_wo_entrp">   -115.81305860 </i>
    <i name="e_0_energy">   -115.81305860 </i>
   </energy>
  </scstep>
  <scstep>
   <time name="diag">    0.67    0.67</time>
   <time name="diis">    2.75    2.79</time>
   <time name="orth">    0.02    0.02</time>
   <time name="total">    5.30    5.36</time>
   <energy>
    <i name="alphaZ">      3.36120243 </i>
    <i name="ewald">   3120.13644786 </i>
    <i name="hartreedc">  -4569.24493044 </i>
    <i name="XCdc">    170.70320853 </i>
    <i name="pawpsdc">   4341.75287341 </i>
    <i name="pawaedc">  -4350.05948413 </i>
    <i name="eentropy">     -0.00000000 </i>
    <i name="bandstr">   -638.25924138 </i>
    <i name="atom">   1805.79685712 </i>
    <i name="e_fr_energy">   -115.81306660 </i>
    <i name="e_wo_entrp">   -115.81306660 </i>
    <i name="e_0_energy">   -115.81306660 </i>
   </energy>
  </scstep>
  <structure>
   <crystal>
    <varray name="basis" >
     <v>      15.00000000       0.00000000       0.00000000 </v>
     <v>       0.00000000      15.00000000       0.00000000 </v>
     <v>       0.00000000       0.00000000      15.00000000 </v>
    </varray>
    <i name="volume">   3375.00000000 </i>
    <varray name="rec_basis" >
     <v>       0.06666667       0.00000000       0.00000000 </v>
     <v>       0.00000000       0.06666667       0.00000000 </v>
     <v>       0.00000000       0.00000000       0.06666667 </v>
    </varray>
   </crystal>
   <varray name="positions" >
    <v>       0.37209355       0.54109101       0.58315480 </v>
    <v>       0.36981724       0.45219167       0.57462662 </v>
    <v>       0.45464032       0.40188523       0.59099551 </v>
    <v>       0.46181457       0.58374416       0.59512044 </v>
    <v>       0.52345780       0.54442809       0.52120716 </v>
    <v>       0.53943583       0.44532529       0.54638902 </v>
    <v>       0.60596369       0.59524271       0.51482787 </v>
    <v>       0.56888701       0.38852314       0.47354735 </v>
    <v>       0.30972246       0.41518722       0.55695381 </v>
    <v>       0.46967725       0.40312330       0.66287792 </v>
    <v>       0.44960153       0.33146433       0.57185413 </v>
    <v>       0.31379844       0.58365451       0.57489722 </v>
    <v>       0.49333365       0.56637575       0.65986616 </v>
    <v>       0.45933567       0.65674741       0.59195198 </v>
    <v>       0.48967732       0.54918088       0.45605665 </v>
    <v>       0.59175900       0.44594286       0.59783825 </v>
    <v>       0.66850702       0.64133691       0.51156164 </v>
    <v>       0.58636172       0.33503572       0.41983117 </v>
   </varray>
  </structure>
  <varray name="forces" >
   <v>       0.03860162       0.01045163      -0.05030367 </v>
   <v>       0.04334281      -0.00490590       0.06384881 </v>
   <v>       0.05968264      -0.04367668       0.02655795 </v>
   <v>       0.02819313       0.08969610       0.03805686 </v>
   <v>       0.01454731       0.02464084       0.08350542 </v>
   <v>      -0.01792653      -0.05850348       0.05943919 </v>
   <v>      -0.03789665       0.01618727      -0.01516554 </v>
   <v>      -0.03354745      -0.03248474      -0.00373056 </v>
   <v>      -0.06321687       0.06124134       0.11802198 </v>
   <v>      -0.16622920      -0.09805823       0.10214769 </v>
   <v>       0.01162029       0.03939299      -0.03275421 </v>
   <v>      -0.09725774      -0.04405756      -0.04038430 </v>
   <v>      -0.15773271       0.10721205      -0.06543466 </v>
   <v>      -0.01370636       0.00512802      -0.09775680 </v>
   <v>      -0.05752449      -0.02916557       0.07441104 </v>
   <v>       0.16669617      -0.10157454      -0.07936451 </v>
   <v>       0.16454855      -0.00613077      -0.00216344 </v>
   <v>       0.11780547       0.06460722      -0.17893126 </v>
  </varray>
  <varray name="stress" >
   <v>      -0.72348377      -0.08213246      -0.25050560 </v>
   <v>      -0.08213246      -1.05684955      -0.02743954 </v>
   <v>      -0.25050560      -0.02743954      -1.11984176 </v>
  </varray>
  <energy>
   <i name="e_fr_energy">   -116.05694371 </i>
   <i name="e_wo_entrp">   -116.05694371 </i>
   <i name="e_0_energy">   -116.05694371 </i>
  </energy>
  <time name="totalsc">   76.75   79.64</time>
 </calculation>
 <calculation>
  <scstep>
   <time name="dav">    3.91    4.09</time>
   <time name="total">    6.27    6.45</time>
   <energy>
    <i name="alphaZ">      3.36120243 </i>
    <i name="ewald">   3121.05761782 </i>
    <i name="hartreedc">  -4570.06236870 </i>
    <i name="XCdc">    170.71336469 </i>
    <i name="pawpsdc">   4341.44331506 </i>
    <i name="pawaedc">  -4349.74988067 </i>
    <i name="eentropy">     -0.00000000 </i>
    <i name="bandstr">   -638.37351298 </i>
    <i name="atom">   1805.79685712 </i>
    <i name="e_fr_energy">   -115.81340523 </i>
    <i name="e_wo_entrp">   -115.81340523 </i>
    <i name="e_0_energy">   -115.81340523 </i>
   </energy>
  </scstep>
  <scstep>
   <time name="diag">    0.35    0.35</time>
   <time name="diis">    3.67    3.88</time>
   <time name="orth">    0.02    0.03</time>
   <time name="total">    5.97    6.18</time>
   <energy>
    <i name="e_fr_energy">   -115.81342281 </i>
    <i name="e_wo_entrp">   -115.81342281 </i>
    <i name="e_0_energy">   -115.81342281 </i>
   </energy>
  </scstep>
  <scstep>
   <time name="diag">    0.53    0.53</time>
   <time name="diis">    3.58    3.62</time>
   <time name="orth">    0.04    0.04</time>
   <time name="total">    6.06    6.15</time>
   <energy>
    <i name="alphaZ">      3.36120243 </i>
    <i name="ewald">   3121.05761782 </i>
    <i name="hartreedc">  -4570.11414440 </i>
    <i name="XCdc">    170.71444153 </i>
    <i name="pawpsdc">   4342.06273662 </i>
    <i name="pawaedc">  -4350.36950831 </i>
    <i name="eentropy">     -0.00000000 </i>
    <i name="bandstr">   -638.32262884 </i>
    <i name="atom">   1805.79685712 </i>
    <i name="e_fr_energy">   -115.81342601 </i>
    <i name="e_wo_entrp">   -115.81342601 </i>
    <i name="e_0_energy">   -115.81342601 </i>
   </energy>
  </scstep>
  <structure>
   <crystal>
    <varray name="basis" >
     <v>      15.00000000       0.00000000       0.00000000 </v>
     <v>       0.00000000      15.00000000       0.00000000 </v>
     <v>       0.00000000       0.00000000      15.00000000 </v>
    </varray>
    <i name="volume">   3375.00000000 </i>
    <varray name="rec_basis" >
     <v>       0.06666667       0.00000000       0.00000000 </v>
     <v>       0.00000000       0.06666667       0.00000000 </v>
     <v>       0.00000000       0.00000000       0.06666667 </v>
    </varray>
   </crystal>
   <varray name="positions" >
    <v>       0.37212773       0.54108344       0.58313224 </v>
    <v>       0.36983678       0.45217613       0.57468237 </v>
    <v>       0.45467793       0.40189732       0.59097663 </v>
    <v>       0.46184213       0.58375292       0.59515067 </v>
    <v>       0.52343961       0.54442942       0.52126015 </v>
    <v>       0.53936987       0.44531631       0.54637866 </v>
    <v>       0.60591893       0.59520962       0.51476857 </v>
    <v>       0.56886490       0.38853783       0.47354971 </v>
    <v>       0.30973109       0.41517445       0.55698156 </v>
    <v>       0.46969420       0.40313281       0.66285104 </v>
    <v>       0.44961897       0.33151357       0.57192049 </v>
    <v>       0.31378925       0.58364329       0.57490129 </v>
    <v>       0.49331525       0.56640488       0.65980745 </v>
    <v>       0.45933310       0.65669543       0.59194541 </v>
    <v>       0.48971359       0.54918343       0.45609225 </v>
    <v>       0.59175605       0.44591218       0.59773915 </v>
    <v>       0.66850849       0.64131460       0.51155246 </v>
    <v>       0.58625368       0.33505054       0.41978567 </v>
   </varray>
  </structure>
  <varray name="forces" >
   <v>       0.02230151       0.01566353      -0.03923595 </v>
   <v>       0.03731402       0.00000550       0.05099801 </v>
   <v>       0.04276820      -0.03248463       0.04706764 </v>
   <v>       0.00343250       0.07347737       0.00262708 </v>
   <v>       0.01361100       0.01933451       0.06072707 </v>
   <v>       0.00797609      -0.05387581       0.05590108 </v>
   <v>       0.03424691       0.06300690      -0.00449212 </v>
   <v>      -0.04006292      -0.05146575      -0.03342335 </v>
   <v>      -0.05807932       0.06412834       0.12163133 </v>
   <v>      -0.16336205      -0.09669635       0.10745993 </v>
   <v>       0.01026512       0.01537002      -0.04402266 </v>
   <v>      -0.08482127      -0.05121380      -0.03992071 </v>
   <v>      -0.14176650       0.09762775      -0.02728528 </v>
   <v>      -0.01366059       0.03153774      -0.09781094 </v>
   <v>      -0.06844705      -0.02875090       0.07265635 </v>
   <v>       0.16831545      -0.10015641      -0.06694078 </v>
   <v>       0.11183696      -0.04386421      -0.00373601 </v>
   <v>       0.11813195       0.07835620      -0.16220069 </v>
  </varray>
  <varray name="stress" >
   <v>      -0.71381195      -0.09496539      -0.24217369 </v>
   <v>      -0.09496539      -1.03854884      -0.03480638 </v>
   <v>      -0.24217369      -0.03480638      -1.08046992 </v>
  </varray>
  <energy>
   <i name="e_fr_energy">   -116.05728811 </i>
   <i name="e_wo_entrp">   -116.05728811 </i>
   <i name="e_0_energy">   -116.05728811 </i>
  </energy>
  <time name="totalsc">   37.70   38.33</time>
 </calculation>
 <calculation>
  <scstep>
   <time name="dav">    2.02    2.02</time>
   <time name="total">    3.82    3.82</time>
   <energy>
    <i name="alphaZ">      3.36120243 </i>
    <i name="ewald">   3120.50031505 </i>
    <i name="hartreedc">  -4569.49238545 </i>
    <i name="XCdc">    170.71556566 </i>
    <i name="pawpsdc">   4342.30627091 </i>
    <i name="pawaedc">  -4350.61312410 </i>
    <i name="eentropy">     -0.00000000 </i>
    <i name="bandstr">   -638.39183597 </i>
    <i name="atom">   1805.79685712 </i>
    <i name="e_fr_energy">   -115.81713434 </i>
    <i name="e_wo_entrp">   -115.81713434 </i>
    <i name="e_0_energy">   -115.81713434 </i>
   </energy>
  </scstep>
  <scstep>
   <time name="diag">    0.35    0.35</time>
   <time name="diis">    2.22    2.22</time>
   <time name="orth">    0.01    0.01</time>
   <time name="total">    4.28    4.28</time>
   <energy>
    <i name="e_fr_energy">   -115.81732533 </i>
    <i name="e_wo_entrp">   -115.81732533 </i>
    <i name="e_0_energy">   -115.81732533 </i>
   </energy>
  </scstep>
  <scstep>
   <time name="diag">    0.34    0.34</time>
   <time name="diis">    2.14    2.14</time>
   <time name="orth">    0.01    0.01</time>
   <time name="total">    4.20    4.20</time>
   <energy>
    <i name="e_fr_energy">   -115.81738740 </i>
    <i name="e_wo_entrp">   -115.81738740 </i>
    <i name="e_0_energy">   -115.81738740 </i>
   </energy>
  </scstep>
  <scstep>
   <time name="diag">    0.37    0.37</time>
   <time name="diis">    2.21    2.21</time>
   <time name="orth">    0.01    0.01</time>
   <time name="total">    4.31    4.32</time>
   <energy>
    <i name="e_fr_energy">   -115.81741072 </i>
    <i name="e_wo_entrp">   -115.81741072 </i>
    <i name="e_0_energy">   -115.81741072 </i>
   </energy>
  </scstep>
  <scstep>
   <time name="diag">    0.31    0.31</time>
   <time name="diis">    1.67    1.67</time>
   <time name="orth">    0.01    0.01</time>
   <time name="total">    3.35    3.35</time>
   <energy>
    <i name="alphaZ">      3.36120243 </i>
    <i name="ewald">   3120.50031505 </i>
    <i name="hartreedc">  -4569.56325328 </i>
    <i name="XCdc">    170.72123060 </i>
    <i name="pawpsdc">   4344.64101020 </i>
    <i name="pawaedc">  -4352.94983945 </i>
    <i name="eentropy">     -0.00000000 </i>
    <i name="bandstr">   -638.32493856 </i>
    <i name="atom">   1805.79685712 </i>
    <i name="e_fr_energy">   -115.81741589 </i>
    <i name="e_wo_entrp">   -115.81741589 </i>
    <i name="e_0_energy">   -115.81741589 </i>
   </energy>
  </scstep>
  <structure>
   <crystal>
    <varray name="basis" >
     <v>      15.00000000       0.00000000       0.00000000 </v>
     <v>       0.00000000      15.00000000       0.00000000 </v>
     <v>       0.00000000       0.00000000      15.00000000 </v>
    </varray>
    <i name="volume">   3375.00000000 </i>
    <varray name="rec_basis" >
     <v>       0.06666667       0.00000000       0.00000000 </v>
     <v>       0.00000000       0.06666667       0.00000000 </v>
     <v>       0.00000000       0.00000000       0.06666667 </v>
    </varray>
   </crystal>
   <varray name="positions" >
    <v>       0.37215193       0.54108695       0.58311997 </v>
    <v>       0.36989315       0.45215413       0.57479394 </v>
    <v>       0.45475517       0.40188185       0.59107870 </v>
    <v>       0.46184015       0.58381549       0.59513573 </v>
    <v>       0.52342868       0.54444185       0.52129626 </v>
    <v>       0.53935620       0.44524423       0.54637523 </v>
    <v>       0.60599194       0.59528952       0.51471645 </v>
    <v>       0.56864213       0.38845845       0.47339550 </v>
    <v>       0.30969919       0.41520594       0.55718688 </v>
    <v>       0.46961155       0.40311702       0.66298399 </v>
    <v>       0.44968095       0.33152301       0.57199011 </v>
    <v>       0.31370664       0.58355486       0.57487080 </v>
    <v>       0.49319509       0.56650595       0.65977823 </v>
    <v>       0.45931604       0.65672789       0.59183420 </v>
    <v>       0.48960041       0.54917310       0.45616483 </v>
    <v>       0.59197315       0.44574753       0.59750980 </v>
    <v>       0.66858706       0.64118902       0.51147863 </v>
    <v>       0.58606544       0.33514452       0.41950386 </v>
   </varray>
  </structure>
  <varray name="forces" >
   <v>       0.00411615       0.01009867      -0.03836826 </v>
   <v>       0.02097080       0.01164815       0.04114934 </v>
   <v>       0.02291426      -0.02613680       0.04967344 </v>
   <v>      -0.01127028       0.06205118      -0.02174380 </v>
   <v>       0.04622095       0.02767477       0.04776933 </v>
   <v>       0.02444661      -0.04248431       0.03662919 </v>
   <v>      -0.16417337      -0.09241640       0.00837512 </v>
   <v>      -0.04463397      -0.00256852       0.00465842 </v>
   <v>      -0.04362922       0.06285714       0.12304025 </v>
   <v>      -0.14710129      -0.09660798       0.10628574 </v>
   <v>       0.00839238       0.00567645      -0.04087656 </v>
   <v>      -0.06723221      -0.05707200      -0.03768159 </v>
   <v>      -0.12392158       0.09338945      -0.00017229 </v>
   <v>      -0.01393718       0.04445322      -0.09638805 </v>
   <v>      -0.05622493      -0.02783030       0.07469132 </v>
   <v>       0.15985754      -0.09886174      -0.06279516 </v>
   <v>       0.26437731       0.07448794      -0.01179815 </v>
   <v>       0.12082803       0.05164108      -0.18244828 </v>
  </varray>
  <varray name="stress" >
   <v>      -0.68392968      -0.05159775      -0.24049608 </v>
   <v>      -0.05159775      -1.03128983      -0.03414960 </v>
   <v>      -0.24049608      -0.03414961      -1.06661016 </v>
  </varray>
  <energy>
   <i name="e_fr_energy">   -116.06126211 </i>
   <i name="e_wo_entrp">   -116.06126211 </i>
   <i name="e_0_energy">   -116.06126211 </i>
  </energy>
  <time name="totalsc">   43.70   43.92</time>
 </calculation>
 <calculation>
  <scstep>
   <time name="dav">    2.96    3.04</time>
   <time name="total">    5.25    5.36</time>
   <energy>
    <i name="alphaZ">      3.36120243 </i>
    <i name="ewald">   3117.89329189 </i>
    <i name="hartreedc">  -4567.36845268 </i>
    <i name="XCdc">    170.69718763 </i>
    <i name="pawpsdc">   4344.48547970 </i>
    <i name="pawaedc">  -4352.79425671 </i>
    <i name="eentropy">     -0.00000000 </i>
    <i name="bandstr">   -637.89506732 </i>
    <i name="atom">   1805.79685712 </i>
    <i name="e_fr_energy">   -115.82375794 </i>
    <i name="e_wo_entrp">   -115.82375794 </i>
    <i name="e_0_energy">   -115.82375794 </i>
   </energy>
  </scstep>
  <scstep>
   <time name="diag">    0.51    0.52</time>
   <time name="diis">    3.61    3.65</time>
   <time name="orth">    0.01    0.01</time>
   <time name="total">    6.42    6.73</time>
   <energy>
    <i name="e_fr_energy">   -115.82445843 </i>
    <i name="e_wo_entrp">   -115.82445843 </i>
    <i name="e_0_energy">   -115.82445843 </i>
   </energy>
  </scstep>
  <scstep>
   <time name="diag">    0.52    0.52</time>
   <time name="diis">    3.36    3.44</time>
   <time name="orth">    0.01    0.01</time>
   <time name="total">    6.22    6.30</time>
   <energy>
    <i name="e_fr_energy">   -115.82463022 </i>
    <i name="e_wo_entrp">   -115.82463022 </i>
    <i name="e_0_energy">   -115.82463022 </i>
   </energy>
  </scstep>
  <scstep>
   <time name="diag">    0.36    0.36</time>
   <time name="diis">    2.33    2.33</time>
   <time name="orth">    0.01    0.01</time>
   <time name="total">    4.54    4.55</time>
   <energy>
    <i name="e_fr_energy">   -115.82471312 </i>
    <i name="e_wo_entrp">   -115.82471312 </i>
    <i name="e_0_energy">   -115.82471312 </i>
   </energy>
  </scstep>
  <scstep>
   <time name="diag">    0.37    0.37</time>
   <time name="diis">    2.06    2.06</time>
   <time name="orth">    0.01    0.01</time>
   <time name="total">    4.28    4.29</time>
   <energy>
    <i name="e_fr_energy">   -115.82473099 </i>
    <i name="e_wo_entrp">   -115.82473099 </i>
    <i name="e_0_energy">   -115.82473099 </i>
   </energy>
  </scstep>
  <scstep>
   <time name="diag">    0.42    0.42</time>
   <time name="diis">    1.45    1.45</time>
   <time name="orth">    0.01    0.01</time>
   <time name="total">    3.25    3.25</time>
   <energy>
    <i name="alphaZ">      3.36120243 </i>
    <i name="ewald">   3117.89329189 </i>
    <i name="hartreedc">  -4567.07684873 </i>
    <i name="XCdc">    170.68441736 </i>
    <i name="pawpsdc">   4337.17549715 </i>
    <i name="pawaedc">  -4345.47920749 </i>
    <i name="eentropy">     -0.00000000 </i>
    <i name="bandstr">   -638.17994740 </i>
    <i name="atom">   1805.79685712 </i>
    <i name="e_fr_energy">   -115.82473768 </i>
    <i name="e_wo_entrp">   -115.82473768 </i>
    <i name="e_0_energy">   -115.82473768 </i>
   </energy>
  </scstep>
  <structure>
   <crystal>
    <varray name="basis" >
     <v>      15.00000000       0.00000000       0.00000000 </v>
     <v>       0.00000000      15.00000000       0.00000000 </v>
     <v>       0.00000000       0.00000000      15.00000000 </v>
    </varray>
    <i name="volume">   3375.00000000 </i>
    <varray name="rec_basis" >
     <v>       0.06666667       0.00000000       0.00000000 </v>
     <v>       0.00000000       0.06666667       0.00000000 </v>
     <v>       0.00000000       0.00000000       0.06666667 </v>
    </varray>
   </crystal>
   <varray name="positions" >
    <v>       0.37216838       0.54109242       0.58310750 </v>
    <v>       0.36997849       0.45212746       0.57497059 </v>
    <v>       0.45487153       0.40184415       0.59128057 </v>
    <v>       0.46181821       0.58392788       0.59508424 </v>
    <v>       0.52344505       0.54447308       0.52132965 </v>
    <v>       0.53937389       0.44511889       0.54636046 </v>
    <v>       0.60597619       0.59532307       0.51465935 </v>
    <v>       0.56822386       0.38834148       0.47313653 </v>
    <v>       0.30964255       0.41527150       0.55756435 </v>
    <v>       0.46945637       0.40308247       0.66325440 </v>
    <v>       0.44978901       0.33151219       0.57209094 </v>
    <v>       0.31356292       0.58338989       0.57481171 </v>
    <v>       0.49298411       0.56668177       0.65976449 </v>
    <v>       0.45928447       0.65682237       0.59162604 </v>
    <v>       0.48937304       0.54915264       0.45628268 </v>
    <v>       0.59238515       0.44545044       0.59712805 </v>
    <v>       0.66887734       0.64106934       0.51133585 </v>
    <v>       0.58576755       0.33528974       0.41896821 </v>
   </varray>
  </structure>
  <varray name="forces" >
   <v>      -0.00801965       0.00278949      -0.03992024 </v>
   <v>       0.00746163       0.02199783       0.03557771 </v>
   <v>       0.00072284      -0.01489045       0.04455693 </v>
   <v>      -0.02609690       0.04880808      -0.03455961 </v>
   <v>       0.02421885      -0.00067121       0.04216776 </v>
   <v>       0.02847572      -0.02475042       0.02727138 </v>
   <v>       0.06765084       0.05513036      -0.00865712 </v>
   <v>      -0.01565952      -0.02185909      -0.03598283 </v>
   <v>      -0.02674972       0.05672751       0.12330042 </v>
   <v>      -0.12231420      -0.09605338       0.09396981 </v>
   <v>       0.00414609       0.00303535      -0.02994387 </v>
   <v>      -0.04820991      -0.05986187      -0.03388511 </v>
   <v>      -0.10523194       0.09315338       0.02010032 </v>
   <v>      -0.01512470       0.04860851      -0.09366130 </v>
   <v>      -0.03220748      -0.02828688       0.08077377 </v>
   <v>       0.13874636      -0.09542492      -0.06204455 </v>
   <v>       0.03616647      -0.08353681       0.00060366 </v>
   <v>       0.09202521       0.09508453      -0.12966713 </v>
  </varray>
  <varray name="stress" >
   <v>      -0.81998322      -0.10121751      -0.22492172 </v>
   <v>      -0.10121751      -1.15426521      -0.05130006 </v>
   <v>      -0.22492172      -0.05130006      -1.09102341 </v>
  </varray>
  <energy>
   <i name="e_fr_energy">   -116.06850735 </i>
   <i name="e_wo_entrp">   -116.06850735 </i>
   <i name="e_0_energy">   -116.06850735 </i>
  </energy>
  <time name="totalsc">   56.03   57.29</time>
 </calculation>
 <calculation>
  <scstep>
   <time name="dav">    3.56    3.62</time>
   <time name="total">    5.99    6.09</time>
   <energy>
    <i name="alphaZ">      3.36120243 </i>
    <i name="ewald">   3119.32644547 </i>
    <i name="hartreedc">  -4568.17465676 </i>
    <i name="XCdc">    170.70596163 </i>
    <i name="pawpsdc">   4336.94900290 </i>
    <i name="pawaedc">  -4345.25267661 </i>
    <i name="eentropy">     -0.00000000 </i>
    <i name="bandstr">   -638.53905935 </i>
    <i name="atom">   1805.79685712 </i>
    <i name="e_fr_energy">   -115.82692317 </i>
    <i name="e_wo_entrp">   -115.82692317 </i>
    <i name="e_0_energy">   -115.82692317 </i>
   </energy>
  </scstep>
  <scstep>
   <time name="diag">    0.40    0.40</time>
   <time name="diis">    2.44    2.44</time>
   <time name="orth">    0.01    0.01</time>
   <time name="total">    4.82    4.91</time>
   <energy>
    <i name="e_fr_energy">   -115.82722964 </i>
    <i name="e_wo_entrp">   -115.82722964 </i>
    <i name="e_0_energy">   -115.82722964 </i>
   </energy>
  </scstep>
  <scstep>
   <time name="diag">    0.34    0.34</time>
   <time name="diis">    2.24    2.24</time>
   <time name="orth">    0.01    0.01</time>
   <time name="total">    4.33    4.36</time>
   <energy>
    <i name="e_fr_energy">   -115.82730969 </i>
    <i name="e_wo_entrp">   -115.82730969 </i>
    <i name="e_0_energy">   -115.82730969 </i>
   </energy>
  </scstep>
  <scstep>
   <time name="diag">    0.41    0.41</time>
   <time name="diis">    2.19    2.19</time>
   <time name="orth">    0.01    0.01</time>
   <time name="total">    5.55    5.56</time>
   <energy>
    <i name="e_fr_energy">   -115.82734176 </i>
    <i name="e_wo_entrp">   -115.82734176 </i>
    <i name="e_0_energy">   -115.82734176 </i>
   </energy>
  </scstep>
  <scstep>
   <time name="diag">    0.30    0.30</time>
   <time name="diis">    1.17    1.17</time>
   <time name="orth">    0.00    0.00</time>
   <time name="total">    2.96    2.96</time>
   <energy>
    <i name="alphaZ">      3.36120243 </i>
    <i name="ewald">   3119.32644547 </i>
    <i name="hartreedc">  -4568.41594775 </i>
    <i name="XCdc">    170.71707142 </i>
    <i name="pawpsdc">   4342.29581657 </i>
    <i name="pawaedc">  -4350.60331032 </i>
    <i name="eentropy">     -0.00000000 </i>
    <i name="bandstr">   -638.30548469 </i>
    <i name="atom">   1805.79685712 </i>
    <i name="e_fr_energy">   -115.82734975 </i>
    <i name="e_wo_entrp">   -115.82734975 </i>
    <i name="e_0_energy">   -115.82734975 </i>
   </energy>
  </scstep>
  <structure>
   <crystal>
    <varray name="basis" >
[...]
   <v>      -0.00074907      -0.00040736       0.00235105 </v>
   <v>      -0.00054951      -0.00099463       0.00688459 </v>
   <v>      -0.00039859      -0.00242442      -0.00107622 </v>
   <v>      -0.00251824       0.00434047      -0.00771352 </v>
   <v>       0.00090275      -0.00013122      -0.00070918 </v>
   <v>      -0.00062852      -0.00031653      -0.00044555 </v>
   <v>       0.00512309      -0.00257564       0.00676493 </v>
   <v>      -0.00002700       0.00357666      -0.00151218 </v>
   <v>      -0.00128960      -0.00080643       0.01656066 </v>
   <v>       0.00215776      -0.01013292      -0.00152710 </v>
   <v>      -0.00222747      -0.00049425      -0.00764237 </v>
   <v>      -0.00263857      -0.00271327       0.00871295 </v>
   <v>      -0.00226406       0.01771412      -0.00662066 </v>
   <v>      -0.00669861       0.00082871      -0.01901462 </v>
   <v>       0.00621646      -0.00056995      -0.00315186 </v>
   <v>      -0.00057217      -0.00225269       0.00031590 </v>
   <v>       0.00452658      -0.00946009       0.01456107 </v>
   <v>       0.00163477       0.00681944      -0.00673790 </v>
  </varray>
  <varray name="stress" >
   <v>      -1.19045457       0.00230070       0.00386193 </v>
   <v>       0.00230070      -1.17523336       0.00796986 </v>
   <v>       0.00386193       0.00796987      -1.20974197 </v>
  </varray>
  <energy>
   <i name="e_fr_energy">   -116.18408438 </i>
   <i name="e_wo_entrp">   -116.18408438 </i>
   <i name="e_0_energy">   -116.18408438 </i>
  </energy>
  <time name="totalsc">   32.67   34.01</time>
 </calculation>
 <calculation>
  <scstep>
   <time name="dav">    4.02    4.24</time>
   <time name="total">    6.39    6.64</time>
   <energy>
    <i name="alphaZ">      3.36120243 </i>
    <i name="ewald">   3106.27329682 </i>
    <i name="hartreedc">  -4556.38559543 </i>
    <i name="XCdc">    170.61923130 </i>
    <i name="pawpsdc">   4330.85292038 </i>
    <i name="pawaedc">  -4339.15269658 </i>
    <i name="eentropy">     -0.00000000 </i>
    <i name="bandstr">   -637.30699310 </i>
    <i name="atom">   1805.79685712 </i>
    <i name="e_fr_energy">   -115.94177706 </i>
    <i name="e_wo_entrp">   -115.94177706 </i>
    <i name="e_0_energy">   -115.94177706 </i>
   </energy>
  </scstep>
  <scstep>
   <time name="diag">    0.69    0.69</time>
   <time name="diis">    1.75    1.80</time>
   <time name="orth">    0.01    0.01</time>
   <time name="total">    4.45    4.53</time>
   <energy>
    <i name="alphaZ">      3.36120243 </i>
    <i name="ewald">   3106.27329682 </i>
    <i name="hartreedc">  -4556.38679741 </i>
    <i name="XCdc">    170.61929597 </i>
    <i name="pawpsdc">   4330.87946730 </i>
    <i name="pawaedc">  -4339.17925585 </i>
    <i name="eentropy">     -0.00000000 </i>
    <i name="bandstr">   -637.30584383 </i>
    <i name="atom">   1805.79685712 </i>
    <i name="e_fr_energy">   -115.94177745 </i>
    <i name="e_wo_entrp">   -115.94177745 </i>
    <i name="e_0_energy">   -115.94177745 </i>
   </energy>
  </scstep>
  <structure>
   <crystal>
    <varray name="basis" >
     <v>      15.00000000       0.00000000       0.00000000 </v>
     <v>       0.00000000      15.00000000       0.00000000 </v>
     <v>       0.00000000       0.00000000      15.00000000 </v>
    </varray>
    <i name="volume">   3375.00000000 </i>
    <varray name="rec_basis" >
     <v>       0.06666667       0.00000000       0.00000000 </v>
     <v>       0.00000000       0.06666667       0.00000000 </v>
     <v>       0.00000000       0.00000000       0.06666667 </v>
    </varray>
   </crystal>
   <varray name="positions" >
    <v>       0.37155949       0.53997454       0.58395760 </v>
    <v>       0.37082032       0.45073845       0.58268086 </v>
    <v>       0.45621492       0.39984287       0.59476480 </v>
    <v>       0.45943543       0.58764387       0.59000341 </v>
    <v>       0.52427948       0.54319366       0.52283382 </v>
    <v>       0.53854871       0.44240443       0.54607752 </v>
    <v>       0.60929054       0.59025302       0.51764255 </v>
    <v>       0.56079105       0.39226037       0.46560968 </v>
    <v>       0.30874320       0.41343734       0.57540877 </v>
    <v>       0.47239153       0.39808319       0.66655026 </v>
    <v>       0.44911818       0.33007650       0.57385123 </v>
    <v>       0.31028691       0.57868377       0.57731255 </v>
    <v>       0.48823622       0.58280971       0.65767523 </v>
    <v>       0.45334912       0.65896105       0.57473318 </v>
    <v>       0.49276213       0.54727745       0.45655140 </v>
    <v>       0.59652932       0.43758423       0.59095971 </v>
    <v>       0.67668930       0.62906560       0.51487614 </v>
    <v>       0.57670703       0.35136879       0.40132816 </v>
   </varray>
  </structure>
  <varray name="forces" >
   <v>      -0.00076741      -0.00111238       0.00189365 </v>
   <v>       0.00035744      -0.00054869       0.00627191 </v>
   <v>      -0.00028025      -0.00277192      -0.00105460 </v>
   <v>      -0.00245917       0.00370791      -0.00742011 </v>
   <v>       0.00105166       0.00008181      -0.00065774 </v>
   <v>      -0.00109859      -0.00047914       0.00028412 </v>
   <v>       0.00087564      -0.00438166       0.00674396 </v>
   <v>       0.00043205       0.00208479      -0.00309642 </v>
   <v>      -0.00150482      -0.00074717       0.01716548 </v>
   <v>       0.00226728      -0.01041952      -0.00154530 </v>
   <v>      -0.00249169      -0.00051283      -0.00786248 </v>
   <v>      -0.00296064      -0.00268423       0.00893383 </v>
   <v>      -0.00244136       0.01844178      -0.00695321 </v>
   <v>      -0.00706135       0.00145101      -0.01960070 </v>
   <v>       0.00652968      -0.00041982      -0.00320519 </v>
   <v>      -0.00089825      -0.00218834       0.00036641 </v>
   <v>       0.00895650      -0.00798490       0.01570296 </v>
   <v>       0.00149329       0.00848330      -0.00596658 </v>
  </varray>
  <varray name="stress" >
   <v>      -1.18855257       0.00295912       0.00366563 </v>
   <v>       0.00295912      -1.17514886       0.00739962 </v>
   <v>       0.00366563       0.00739962      -1.21023703 </v>
  </varray>
  <energy>
   <i name="e_fr_energy">   -116.18409269 </i>
   <i name="e_wo_entrp">   -116.18409269 </i>
   <i name="e_0_energy">   -116.18409269 </i>
  </energy>
  <time name="totalsc">   22.76   23.23</time>
 </calculation>
 <calculation>
  <scstep>
   <time name="dav">    3.64    3.86</time>
   <time name="total">    6.32    6.66</time>
   <energy>
    <i name="alphaZ">      3.36120243 </i>
    <i name="ewald">   3106.26671296 </i>
    <i name="hartreedc">  -4556.38313790 </i>
    <i name="XCdc">    170.61927548 </i>
    <i name="pawpsdc">   4330.89860447 </i>
    <i name="pawaedc">  -4339.19840451 </i>
    <i name="eentropy">     -0.00000000 </i>
    <i name="bandstr">   -637.30290878 </i>
    <i name="atom">   1805.79685712 </i>
    <i name="e_fr_energy">   -115.94179873 </i>
    <i name="e_wo_entrp">   -115.94179873 </i>
    <i name="e_0_energy">   -115.94179873 </i>
   </energy>
  </scstep>
  <scstep>
   <time name="diag">    0.55    0.55</time>
   <time name="diis">    1.31    1.41</time>
   <time name="orth">    0.01    0.02</time>
   <time name="total">    4.28    4.54</time>
   <energy>
    <i name="alphaZ">      3.36120243 </i>
    <i name="ewald">   3106.26671296 </i>
    <i name="hartreedc">  -4556.38279000 </i>
    <i name="XCdc">    170.61923755 </i>
    <i name="pawpsdc">   4330.89876826 </i>
    <i name="pawaedc">  -4339.19856087 </i>
    <i name="eentropy">     -0.00000000 </i>
    <i name="bandstr">   -637.30322668 </i>
    <i name="atom">   1805.79685712 </i>
    <i name="e_fr_energy">   -115.94179924 </i>
    <i name="e_wo_entrp">   -115.94179924 </i>
    <i name="e_0_energy">   -115.94179924 </i>
   </energy>
  </scstep>
  <structure>
   <crystal>
    <varray name="basis" >
     <v>      15.00000000       0.00000000       0.00000000 </v>
     <v>       0.00000000      15.00000000       0.00000000 </v>
     <v>       0.00000000       0.00000000      15.00000000 </v>
    </varray>
    <i name="volume">   3375.00000000 </i>
    <varray name="rec_basis" >
     <v>       0.06666667       0.00000000       0.00000000 </v>
     <v>       0.00000000       0.06666667       0.00000000 </v>
     <v>       0.00000000       0.00000000       0.06666667 </v>
    </varray>
   </crystal>
   <varray name="positions" >
    <v>       0.37155915       0.53997361       0.58395919 </v>
    <v>       0.37082082       0.45073777       0.58268551 </v>
    <v>       0.45621545       0.39984147       0.59476482 </v>
    <v>       0.45943402       0.58764586       0.58999892 </v>
    <v>       0.52427976       0.54319354       0.52283287 </v>
    <v>       0.53854762       0.44240380       0.54607648 </v>
    <v>       0.60929111       0.59025025       0.51764575 </v>
    <v>       0.56078824       0.39226156       0.46560653 </v>
    <v>       0.30874283       0.41343631       0.57542022 </v>
    <v>       0.47239457       0.39807873       0.66654958 </v>
    <v>       0.44911763       0.33007608       0.57384863 </v>
    <v>       0.31028519       0.57868168       0.57731827 </v>
    <v>       0.48823527       0.58282026       0.65767087 </v>
    <v>       0.45334486       0.65896163       0.57472158 </v>
    <v>       0.49276540       0.54727744       0.45654909 </v>
    <v>       0.59652919       0.43758204       0.59095711 </v>
    <v>       0.67669408       0.62906038       0.51488438 </v>
    <v>       0.57670302       0.35137376       0.40132288 </v>
   </varray>
  </structure>
  <varray name="forces" >
   <v>      -0.00071864      -0.00087940       0.00179610 </v>
   <v>       0.00007901      -0.00081516       0.00608988 </v>
   <v>      -0.00035818      -0.00260847      -0.00103956 </v>
   <v>      -0.00250492       0.00367034      -0.00734947 </v>
   <v>       0.00073646      -0.00014486      -0.00043842 </v>
   <v>      -0.00098314      -0.00059154       0.00016806 </v>
   <v>       0.00427086      -0.00212950       0.00634763 </v>
   <v>       0.00024633       0.00242257      -0.00219523 </v>
   <v>      -0.00141124      -0.00073657       0.01712388 </v>
   <v>       0.00221732      -0.01045957      -0.00139905 </v>
   <v>      -0.00254700      -0.00070764      -0.00783347 </v>
   <v>      -0.00290574      -0.00280344       0.00896545 </v>
   <v>      -0.00239895       0.01827696      -0.00679583 </v>
   <v>      -0.00705537       0.00111969      -0.01947236 </v>
   <v>       0.00650448      -0.00049695      -0.00313673 </v>
   <v>      -0.00087228      -0.00224581       0.00039614 </v>
   <v>       0.00607270      -0.00884780       0.01510541 </v>
   <v>       0.00162830       0.00797714      -0.00633242 </v>
  </varray>
  <varray name="stress" >
   <v>      -1.18974170       0.00260465       0.00377384 </v>
   <v>       0.00260465      -1.17562699       0.00753294 </v>
   <v>       0.00377384       0.00753294      -1.21054966 </v>
  </varray>
  <energy>
   <i name="e_fr_energy">   -116.18411246 </i>
   <i name="e_wo_entrp">   -116.18411246 </i>
   <i name="e_0_energy">   -116.18411246 </i>
  </energy>
  <time name="totalsc">   20.11   21.52</time>
 </calculation>
 <calculation>
  <scstep>
   <time name="dav">    2.53    2.53</time>
   <time name="total">    5.47    5.63</time>
   <energy>
    <i name="alphaZ">      3.36120243 </i>
    <i name="ewald">   3106.24636585 </i>
    <i name="hartreedc">  -4556.35761999 </i>
    <i name="XCdc">    170.61951125 </i>
    <i name="pawpsdc">   4330.88827616 </i>
    <i name="pawaedc">  -4339.18805604 </i>
    <i name="eentropy">     -0.00000000 </i>
    <i name="bandstr">   -637.30848791 </i>
    <i name="atom">   1805.79685712 </i>
    <i name="e_fr_energy">   -115.94195114 </i>
    <i name="e_wo_entrp">   -115.94195114 </i>
    <i name="e_0_energy">   -115.94195114 </i>
   </energy>
  </scstep>
  <scstep>
   <time name="diag">    0.52    0.52</time>
   <time name="diis">    2.94    3.35</time>
   <time name="orth">    0.01    0.02</time>
   <time name="total">    5.76    6.58</time>
   <energy>
    <i name="e_fr_energy">   -115.94197086 </i>
    <i name="e_wo_entrp">   -115.94197086 </i>
    <i name="e_0_energy">   -115.94197086 </i>
   </energy>
  </scstep>
  <scstep>
   <time name="diag">    1.12    1.13</time>
   <time name="diis">    3.06    3.10</time>
   <time name="orth">    0.02    0.02</time>
   <time name="total">    6.55    6.61</time>
   <energy>
    <i name="alphaZ">      3.36120243 </i>
    <i name="ewald">   3106.24636585 </i>
    <i name="hartreedc">  -4556.36215126 </i>
    <i name="XCdc">    170.61971664 </i>
    <i name="pawpsdc">   4331.04696062 </i>
    <i name="pawaedc">  -4339.34684634 </i>
    <i name="eentropy">     -0.00000000 </i>
    <i name="bandstr">   -637.30408276 </i>
    <i name="atom">   1805.79685712 </i>
    <i name="e_fr_energy">   -115.94197770 </i>
    <i name="e_wo_entrp">   -115.94197770 </i>
    <i name="e_0_energy">   -115.94197770 </i>
   </energy>
  </scstep>
  <structure>
   <crystal>
    <varray name="basis" >
     <v>      15.00000000       0.00000000       0.00000000 </v>
     <v>       0.00000000      15.00000000       0.00000000 </v>
     <v>       0.00000000       0.00000000      15.00000000 </v>
    </varray>
    <i name="volume">   3375.00000000 </i>
    <varray name="rec_basis" >
     <v>       0.06666667       0.00000000       0.00000000 </v>
     <v>       0.00000000       0.06666667       0.00000000 </v>
     <v>       0.00000000       0.00000000       0.06666667 </v>
    </varray>
   </crystal>
   <varray name="positions" >
    <v>       0.37155659       0.53996375       0.58397462 </v>
    <v>       0.37082635       0.45072940       0.58273007 </v>
    <v>       0.45622243       0.39983023       0.59476813 </v>
    <v>       0.45942173       0.58766172       0.58995827 </v>
    <v>       0.52427967       0.54319222       0.52282210 </v>
    <v>       0.53853570       0.44239748       0.54606221 </v>
    <v>       0.60930520       0.59023348       0.51766973 </v>
    <v>       0.56075056       0.39227019       0.46557207 </v>
    <v>       0.30874118       0.41342474       0.57552923 </v>
    <v>       0.47242886       0.39804432       0.66654599 </v>
    <v>       0.44911626       0.33007134       0.57383252 </v>
    <v>       0.31026984       0.57866098       0.57737268 </v>
    <v>       0.48822961       0.58291303       0.65762947 </v>
    <v>       0.45330629       0.65896528       0.57461901 </v>
    <v>       0.49279188       0.54727946       0.45652665 </v>
    <v>       0.59652979       0.43755865       0.59092298 </v>
    <v>       0.67672842       0.62901001       0.51495399 </v>
    <v>       0.57664399       0.35141399       0.40126642 </v>
   </varray>
  </structure>
  <varray name="forces" >
   <v>      -0.00071188       0.00143710       0.00231739 </v>
   <v>      -0.00201739      -0.00186394       0.00675606 </v>
   <v>      -0.00025283      -0.00236996      -0.00172704 </v>
   <v>      -0.00316751       0.00599028      -0.00824129 </v>
   <v>       0.00181656      -0.00036510      -0.00068444 </v>
   <v>       0.00052928      -0.00124473      -0.00153643 </v>
   <v>       0.00229995      -0.00448182       0.00659085 </v>
   <v>      -0.00139100       0.00635960       0.00303602 </v>
   <v>      -0.00090411      -0.00059900       0.01608776 </v>
   <v>       0.00166330      -0.01035468      -0.00162776 </v>
   <v>      -0.00266408      -0.00081809      -0.00773511 </v>
   <v>      -0.00207577      -0.00323327       0.00836493 </v>
   <v>      -0.00190326       0.01693225      -0.00548278 </v>
   <v>      -0.00672051      -0.00034985      -0.01872079 </v>
   <v>       0.00616385      -0.00071741      -0.00348549 </v>
   <v>      -0.00015323      -0.00186030       0.00059586 </v>
   <v>       0.00641633      -0.00773688       0.01381485 </v>
   <v>       0.00307233       0.00527581      -0.00832261 </v>
  </varray>
  <varray name="stress" >
   <v>      -1.18912713       0.00196409       0.00333228 </v>
   <v>       0.00196409      -1.17429647       0.00889654 </v>
   <v>       0.00333228       0.00889654      -1.20819904 </v>
  </varray>
  <energy>
   <i name="e_fr_energy">   -116.18427557 </i>
   <i name="e_wo_entrp">   -116.18427557 </i>
   <i name="e_0_energy">   -116.18427557 </i>
  </energy>
  <time name="totalsc">   32.32   33.63</time>
  <eigenvalues>
   <array>
    <dimension dim="1">band</dimension>
    <dimension dim="2">kpoint</dimension>
    <dimension dim="3">spin</dimension>
    <field>eigene</field>
    <field>occ</field>
    <set>
     <set comment="spin 1">
      <set comment="kpoint 1">
       <r>  -22.8240    1.0000 </r>
       <r>  -22.4991    1.0000 </r>
       <r>  -21.7342    1.0000 </r>
       <r>  -19.7190    1.0000 </r>
       <r>  -19.5353    1.0000 </r>
       <r>  -16.7043    1.0000 </r>
       <r>  -16.4403    1.0000 </r>
       <r>  -13.6806    1.0000 </r>
       <r>  -13.6497    1.0000 </r>
       <r>  -13.3490    1.0000 </r>
       <r>  -11.7424    1.0000 </r>
       <r>  -11.4455    1.0000 </r>
       <r>  -11.1626    1.0000 </r>
       <r>  -10.4617    1.0000 </r>
       <r>  -10.3100    1.0000 </r>
       <r>   -9.8343    1.0000 </r>
       <r>   -9.1552    1.0000 </r>
       <r>   -8.8150    1.0000 </r>
       <r>   -8.4974    1.0000 </r>
       <r>   -8.4532    1.0000 </r>
       <r>   -8.2671    1.0000 </r>
       <r>   -8.0764    1.0000 </r>
       <r>   -7.9048    1.0000 </r>
       <r>   -7.8050    1.0000 </r>
       <r>   -6.5857    1.0000 </r>
       <r>   -1.4683    0.0000 </r>
       <r>   -1.0871    0.0000 </r>
       <r>   -0.6914    0.0000 </r>
       <r>   -0.6260    0.0000 </r>
       <r>   -0.3809    0.0000 </r>
       <r>   -0.2866    0.0000 </r>
       <r>    0.0368    0.0000 </r>
       <r>    0.1375    0.0000 </r>
       <r>    0.1700    0.0000 </r>
       <r>    0.4319    0.0000 </r>
      </set>
     </set>
    </set>
   </array>
  </eigenvalues>
  <separator name="orbital magnetization" >
   <v name="MAGDIPOLOUT">      0.00000000      0.00000000      0.00000000</v>
  </separator>
 </calculation>
 <structure name="finalpos" >
  <crystal>
   <varray name="basis" >
    <v>      15.00000000       0.00000000       0.00000000 </v>
    <v>       0.00000000      15.00000000       0.00000000 </v>
    <v>       0.00000000       0.00000000      15.00000000 </v>
   </varray>
   <i name="volume">   3375.00000000 </i>
   <varray name="rec_basis" >
    <v>       0.06666667       0.00000000       0.00000000 </v>
    <v>       0.00000000       0.06666667       0.00000000 </v>
    <v>       0.00000000       0.00000000       0.06666667 </v>
   </varray>
  </crystal>
  <varray name="positions" >
   <v>       0.37155659       0.53996375       0.58397462 </v>
   <v>       0.37082635       0.45072940       0.58273007 </v>
   <v>       0.45622243       0.39983023       0.59476813 </v>
   <v>       0.45942173       0.58766172       0.58995827 </v>
   <v>       0.52427967       0.54319222       0.52282210 </v>
   <v>       0.53853570       0.44239748       0.54606221 </v>
   <v>       0.60930520       0.59023348       0.51766973 </v>
   <v>       0.56075056       0.39227019       0.46557207 </v>
   <v>       0.30874118       0.41342474       0.57552923 </v>
   <v>       0.47242886       0.39804432       0.66654599 </v>
   <v>       0.44911626       0.33007134       0.57383252 </v>
   <v>       0.31026984       0.57866098       0.57737268 </v>
   <v>       0.48822961       0.58291303       0.65762947 </v>
   <v>       0.45330629       0.65896528       0.57461901 </v>
   <v>       0.49279188       0.54727946       0.45652665 </v>
   <v>       0.59652979       0.43755865       0.59092298 </v>
   <v>       0.67672842       0.62901001       0.51495399 </v>
   <v>       0.57664399       0.35141399       0.40126642 </v>
  </varray>
 </structure>
</modeling>
