unknown system                          
           1
    15.000000    0.000000    0.000000
     0.000000   15.000000    0.000000
     0.000000    0.000000   15.000000
   C    H    N 
     8     8     2
Direct configuration=     1
   0.37242396  0.54096297  0.58284089
   0.36975938  0.45209472  0.57487393
   0.45469672  0.40227934  0.58997436
   0.46222243  0.58335030  0.59558623
   0.52313750  0.54427582  0.52185737
   0.53837736  0.44573947  0.54620566
   0.60538556  0.59456777  0.51405142
   0.57004854  0.38918067  0.47440430
   0.31018261  0.41473849  0.55608465
   0.47062383  0.40340855  0.66141949
   0.44949235  0.33227855  0.57262687
   0.31434401  0.58397375  0.57520535
   0.49392254  0.56619849  0.65916416
   0.45940096  0.65564645  0.59260662
   0.49118845  0.54929990  0.45629883
   0.59012838  0.44650624  0.59756022
   0.66729095  0.64128692  0.51192094
   0.58555087  0.33485618  0.42113525
Direct configuration=     2
   0.37239054  0.54100152  0.58291722
   0.36974807  0.45210454  0.57478912
   0.45464610  0.40232637  0.59020284
   0.46206273  0.58333889  0.59538131
   0.52321036  0.54432510  0.52172884
   0.53860643  0.44566342  0.54620122
   0.60534930  0.59456129  0.51420237
   0.56987712  0.38919481  0.47439554
   0.31012545  0.41481025  0.55618265
   0.47048397  0.40335661  0.66159059
   0.44949044  0.33205711  0.57245664
   0.31428457  0.58393537  0.57516232
   0.49390400  0.56618192  0.65938919
   0.45939615  0.65587605  0.59252857
   0.49096838  0.54928450  0.45625559
   0.59033608  0.44645226  0.59766253
   0.66756800  0.64140102  0.51187548
   0.58575434  0.33478796  0.42091718
Direct configuration=     3
   0.37233422  0.54100701  0.58296264
   0.36975131  0.45213880  0.57474070
   0.45462070  0.40226958  0.59033996
   0.46199572  0.58338440  0.59530747
   0.52323281  0.54432973  0.52162886
   0.53875773  0.44562961  0.54624587
   0.60563084  0.59479846  0.51431104
   0.56978533  0.38896366  0.47414049
   0.31006348  0.41487001  0.55628323
   0.47035926  0.40331658  0.66178433
   0.44949877  0.33193755  0.57233683
   0.31422071  0.58389764  0.57512215
   0.49383812  0.56619428  0.65950306
   0.45938887  0.65603570  0.59244775
   0.49076641  0.54926777  0.45621605
   0.59054224  0.44639133  0.59773078
   0.66755476  0.64128960  0.51184000
   0.58585582  0.33493450  0.42089366
Direct configuration=     4
   0.37224958  0.54102755  0.58302987
   0.36976213  0.45217055  0.57468280
   0.45460715  0.40216376  0.59054750
   0.46192055  0.58347614  0.59521986
   0.52332797  0.54437214  0.52147940
   0.53899586  0.44553328  0.54627052
   0.60557389  0.59481265  0.51449505
   0.56949320  0.38895115  0.47408953
   0.30996222  0.41496650  0.55646631
   0.47015582  0.40325621  0.66210881
   0.44952136  0.33177002  0.57216760
   0.31410554  0.58383015  0.57505571
   0.49370780  0.56623123  0.65964888
   0.45937474  0.65627240  0.59230774
   0.49043732  0.54924252  0.45615769
   0.59089451  0.44627335  0.59780206
   0.66797686  0.64142296  0.51175619
   0.58607715  0.33485360  0.42050200
Direct configuration=     5
   0.37209355  0.54109101  0.58315480
   0.36981724  0.45219167  0.57462662
   0.45464032  0.40188523  0.59099551
   0.46181457  0.58374416  0.59512044
   0.52345780  0.54442809  0.52120716
   0.53943583  0.44532529  0.54638902
   0.60596369  0.59524271  0.51482787
   0.56888701  0.38852314  0.47354735
   0.30972246  0.41518722  0.55695381
   0.46967725  0.40312330  0.66287792
   0.44960153  0.33146433  0.57185413
   0.31379844  0.58365451  0.57489722
   0.49333365  0.56637575  0.65986616
   0.45933567  0.65674741  0.59195198
   0.48967732  0.54918088  0.45605665
   0.59175900  0.44594286  0.59783825
   0.66850702  0.64133691  0.51156164
   0.58636172  0.33503572  0.41983117
Direct configuration=     6
   0.37212773  0.54108344  0.58313224
   0.36983678  0.45217613  0.57468237
   0.45467793  0.40189732  0.59097663
   0.46184213  0.58375292  0.59515067
   0.52343961  0.54442942  0.52126015
   0.53936987  0.44531631  0.54637866
   0.60591893  0.59520962  0.51476857
   0.56886490  0.38853783  0.47354971
   0.30973109  0.41517445  0.55698156
   0.46969420  0.40313281  0.66285104
   0.44961897  0.33151357  0.57192049
   0.31378925  0.58364329  0.57490129
   0.49331525  0.56640488  0.65980745
   0.45933310  0.65669543  0.59194541
   0.48971359  0.54918343  0.45609225
   0.59175605  0.44591218  0.59773915
   0.66850849  0.64131460  0.51155246
   0.58625368  0.33505054  0.41978567
Direct configuration=     7
   0.37215193  0.54108695  0.58311997
   0.36989315  0.45215413  0.57479394
   0.45475517  0.40188185  0.59107870
   0.46184015  0.58381549  0.59513573
   0.52342868  0.54444185  0.52129626
   0.53935620  0.44524423  0.54637523
   0.60599194  0.59528952  0.51471645
   0.56864213  0.38845845  0.47339550
   0.30969919  0.41520594  0.55718688
   0.46961155  0.40311702  0.66298399
   0.44968095  0.33152301  0.57199011
   0.31370664  0.58355486  0.57487080
   0.49319509  0.56650595  0.65977823
   0.45931604  0.65672789  0.59183420
   0.48960041  0.54917310  0.45616483
   0.59197315  0.44574753  0.59750980
   0.66858706  0.64118902  0.51147863
   0.58606544  0.33514452  0.41950386
Direct configuration=     8
   0.37216838  0.54109242  0.58310750
   0.36997849  0.45212746  0.57497059
   0.45487153  0.40184415  0.59128057
   0.46181821  0.58392788  0.59508424
   0.52344505  0.54447308  0.52132965
   0.53937389  0.44511889  0.54636046
   0.60597619  0.59532307  0.51465935
   0.56822386  0.38834148  0.47313653
   0.30964255  0.41527150  0.55756435
   0.46945637  0.40308247  0.66325440
   0.44978901  0.33151219  0.57209094
   0.31356292  0.58338989  0.57481171
   0.49298411  0.56668177  0.65976449
   0.45928447  0.65682237  0.59162604
   0.48937304  0.54915264  0.45628268
   0.59238515  0.44545044  0.59712805
   0.66887734  0.64106934  0.51133585
   0.58576755  0.33528974  0.41896821
Direct configuration=     9
   0.37220521  0.54107477  0.58306591
   0.37002743  0.45210900  0.57513294
   0.45494815  0.40187714  0.59135268
   0.46181316  0.58396010  0.59505377
   0.52342435  0.54447012  0.52141394
   0.53929543  0.44507190  0.54631178
   0.60598219  0.59531774  0.51452606
   0.56801370  0.38831724  0.47299488
   0.30966072  0.41527521  0.55779032
   0.46944834  0.40308240  0.66331643
   0.44986377  0.33156959  0.57225960
   0.31351955  0.58328073  0.57479793
   0.49289545  0.56680524  0.65971884
   0.45926393  0.65680322  0.59152279
   0.48936106  0.54914795  0.45641160
   0.59254170  0.44526344  0.59678342
   0.66889890  0.64090459  0.51125988
   0.58541530  0.33541560  0.41868883
Direct configuration=    10
   0.37220860  0.54106581  0.58304175
   0.37006440  0.45209768  0.57526927
   0.45499833  0.40189217  0.59146747
   0.46178365  0.58400262  0.59499758
   0.52344186  0.54446833  0.52145111
   0.53928330  0.44501947  0.54625619
   0.60590814  0.59524661  0.51444449
   0.56774362  0.38833348  0.47286041
   0.30966729  0.41529279  0.55805858
   0.46942009  0.40306836  0.66344666
   0.44993597  0.33158138  0.57239449
   0.31346468  0.58315658  0.57477095
   0.49279183  0.56693860  0.65972664
   0.45923713  0.65684588  0.59138656
   0.48929367  0.54913641  0.45652176
   0.59276169  0.44505357  0.59646802
   0.66905386  0.64080596  0.51116342
   0.58511413  0.33551194  0.41831672
Direct configuration=    11
   0.37221220  0.54105781  0.58302454
   0.37007606  0.45209343  0.57533776
   0.45501183  0.40191304  0.59150823
   0.46176835  0.58401198  0.59497347
   0.52343583  0.54444966  0.52147839
   0.53926065  0.44501277  0.54622688
   0.60596986  0.59525982  0.51438534
   0.56765502  0.38831469  0.47274431
   0.30968336  0.41528692  0.55818369
   0.46943877  0.40306464  0.66348189
   0.44996539  0.33159652  0.57248085
   0.31345215  0.58310022  0.57476285
   0.49275679  0.56700798  0.65973119
   0.45922205  0.65685267  0.59132499
   0.48929915  0.54913050  0.45657975
   0.59283574  0.44495687  0.59630845
   0.66900485  0.64068071  0.51112626
   0.58492401  0.33561484  0.41820597
Direct configuration=    12
   0.37220611  0.54105232  0.58301141
   0.37010811  0.45208761  0.57545009
   0.45504897  0.40191111  0.59163223
   0.46173708  0.58406618  0.59492671
   0.52345683  0.54443811  0.52149611
   0.53927499  0.44496155  0.54618578
   0.60596635  0.59522296  0.51433673
   0.56739913  0.38831748  0.47256935
   0.30967313  0.41530101  0.55845795
   0.46940921  0.40304087  0.66363555
   0.45002314  0.33158678  0.57258788
   0.31338481  0.58298745  0.57472750
   0.49264435  0.56714873  0.65975897
   0.45919054  0.65691848  0.59117252
   0.48921360  0.54911189  0.45666109
   0.59307116  0.44475033  0.59604427
   0.66912820  0.64055597  0.51103144
   0.58466531  0.33573758  0.41785071
Direct configuration=    13
   0.37219850  0.54105369  0.58300703
   0.37013007  0.45208237  0.57552303
   0.45507538  0.40189783  0.59172873
   0.46171524  0.58411574  0.59489789
   0.52347161  0.54442775  0.52150359
   0.53929741  0.44491962  0.54616847
   0.60599499  0.59520858  0.51431950
   0.56722021  0.38830427  0.47240895
   0.30965348  0.41530948  0.55866665
   0.46938384  0.40301617  0.66376085
   0.45005675  0.33156983  0.57265117
   0.31332546  0.58291059  0.57469547
   0.49255198  0.56726106  0.65978702
   0.45916379  0.65697716  0.59104740
   0.48914052  0.54909268  0.45670528
   0.59325486  0.44459713  0.59587538
   0.66921328  0.64045538  0.51096224
   0.58449849  0.33585362  0.41760176
Direct configuration=    14
   0.37218989  0.54105705  0.58300489
   0.37015240  0.45207775  0.57558978
   0.45510467  0.40187734  0.59182384
   0.46169500  0.58416984  0.59487177
   0.52348376  0.54441863  0.52151048
   0.53932526  0.44487051  0.54615809
   0.60603708  0.59520237  0.51431392
   0.56704426  0.38831157  0.47227319
   0.30962622  0.41531820  0.55887093
   0.46935330  0.40298702  0.66388736
   0.45008352  0.33154874  0.57270094
   0.31326204  0.58284052  0.57466098
   0.49245564  0.56737530  0.65981656
   0.45913628  0.65703866  0.59091896
   0.48906428  0.54907050  0.45674066
   0.59343714  0.44444941  0.59572797
   0.66929805  0.64035645  0.51089676
   0.58436603  0.33595316  0.41733874
Direct configuration=    15
   0.37217673  0.54106221  0.58299846
   0.37018905  0.45206941  0.57570465
   0.45515427  0.40184598  0.59197652
   0.46166193  0.58425731  0.59482703
   0.52350761  0.54440660  0.52152911
   0.53936424  0.44479195  0.54614361
   0.60605448  0.59514905  0.51430370
   0.56676772  0.38831339  0.47203267
   0.30958366  0.41532952  0.55921026
   0.46930910  0.40293707  0.66408680
   0.45012478  0.33151802  0.57278832
   0.31316014  0.58272549  0.57460454
   0.49229698  0.56757040  0.65986374
   0.45908939  0.65713511  0.59070425
   0.48895166  0.54903221  0.45680296
   0.59372897  0.44420483  0.59548138
   0.66947530  0.64021918  0.51078836
   0.58413797  0.33614116  0.41692228
Direct configuration=    16
   0.37217091  0.54106420  0.58299252
   0.37020876  0.45206422  0.57576987
   0.45518184  0.40183134  0.59205408
   0.46164309  0.58430230  0.59480195
   0.52351162  0.54439624  0.52154470
   0.53937925  0.44475114  0.54613864
   0.60612142  0.59516054  0.51429111
   0.56663243  0.38829781  0.47189010
   0.30956346  0.41533548  0.55939000
   0.46928675  0.40290937  0.66418592
   0.45014570  0.33150505  0.57283706
   0.31310846  0.58266426  0.57457533
   0.49221294  0.56767679  0.65988571
   0.45906424  0.65718223  0.59059004
   0.48889935  0.54901092  0.45684073
   0.59387716  0.44407541  0.59534712
   0.66951542  0.64010778  0.51073564
   0.58401090  0.33626121  0.41672079
Direct configuration=    17
   0.37216113  0.54106803  0.58298391
   0.37023752  0.45205663  0.57586522
   0.45522381  0.40180649  0.59216676
   0.46161579  0.58437086  0.59476453
   0.52352642  0.54438577  0.52156980
   0.53940440  0.44468528  0.54613155
   0.60614678  0.59512100  0.51428353
   0.56642795  0.38831535  0.47172008
   0.30953068  0.41534326  0.55965753
   0.46925380  0.40286377  0.66433052
   0.45017081  0.33148424  0.57290372
   0.31303078  0.58257710  0.57453046
   0.49208523  0.56784084  0.65991973
   0.45902514  0.65725289  0.59041542
   0.48882662  0.54897637  0.45689375
   0.59409250  0.44388497  0.59515906
   0.66964311  0.63998963  0.51065624
   0.58384817  0.33641465  0.41638889
Direct configuration=    18
   0.37214984  0.54107082  0.58296814
   0.37027243  0.45204659  0.57599164
   0.45527517  0.40177836  0.59229781
   0.46157887  0.58445383  0.59471459
   0.52354178  0.54436894  0.52161363
   0.53942678  0.44460541  0.54612763
   0.60619942  0.59507887  0.51427040
   0.56619877  0.38832670  0.47149745
   0.30949431  0.41535103  0.55999294
   0.46921826  0.40280005  0.66449460
   0.45019475  0.33146314  0.57298849
   0.31293931  0.58247047  0.57447496
   0.49192447  0.56805819  0.65995837
   0.45897353  0.65733392  0.59019160
   0.48875839  0.54892865  0.45696789
   0.59434196  0.44364876  0.59492636
   0.66977597  0.63982151  0.51056443
   0.58364798  0.33664145  0.41599994
Direct configuration=    19
   0.37213938  0.54107247  0.58295126
   0.37030283  0.45203721  0.57610990
   0.45531938  0.40175408  0.59241048
   0.46154311  0.58452784  0.59466695
   0.52355665  0.54435001  0.52165966
   0.53944406  0.44453244  0.54612268
   0.60624979  0.59503633  0.51425945
   0.56599688  0.38836414  0.47132403
   0.30946411  0.41535635  0.56029967
   0.46919054  0.40273674  0.66463389
   0.45021056  0.33144564  0.57306494
   0.31285974  0.58237522  0.57442442
   0.49177712  0.56826538  0.65999228
   0.45892399  0.65740440  0.58998240
   0.48871152  0.54888182  0.45703918
   0.59455571  0.44343495  0.59471927
   0.66988952  0.63966217  0.51048552
   0.58348120  0.33684312  0.41563289
Direct configuration=    20
   0.37212465  0.54107424  0.58292600
   0.37034515  0.45202410  0.57627925
   0.45537947  0.40172042  0.59256683
   0.46149178  0.58463159  0.59459797
   0.52358278  0.54432376  0.52172859
   0.53946531  0.44443322  0.54611924
   0.60628890  0.59495025  0.51424652
   0.56572594  0.38840134  0.47106080
   0.30942313  0.41536284  0.56073520
   0.46915397  0.40264367  0.66482533
   0.45022960  0.33142195  0.57317286
   0.31274924  0.58224107  0.57435295
   0.49156774  0.56856451  0.66003971
   0.45885222  0.65750234  0.58968265
   0.48865421  0.54881364  0.45714267
   0.59485062  0.44313284  0.59442901
   0.67007537  0.63945253  0.51037464
   0.58324424  0.33715444  0.41513407
Direct configuration=    21
   0.37211844  0.54107369  0.58291224
   0.37035998  0.45201902  0.57635240
   0.45539842  0.40170774  0.59262081
   0.46146743  0.58467242  0.59456718
   0.52359165  0.54430481  0.52176712
   0.53946824  0.44439610  0.54612319
   0.60634534  0.59493263  0.51424258
   0.56564267  0.38841759  0.47095341
   0.30941022  0.41536260  0.56091544
   0.46914601  0.40259580  0.66488783
   0.45022672  0.33141435  0.57321365
   0.31270946  0.58218969  0.57432349
   0.49147980  0.56870277  0.66005771
   0.45881832  0.65753761  0.58954995
   0.48865483  0.54877983  0.45719013
   0.59494889  0.44301212  0.59432201
   0.67011053  0.63933444  0.51033882
   0.58316312  0.33731443  0.41494860
Direct configuration=    22
   0.37210265  0.54107463  0.58288310
   0.37040075  0.45200587  0.57653189
   0.45545459  0.40167314  0.59277300
   0.46141117  0.58477909  0.59449224
   0.52362289  0.54427130  0.52184868
   0.53948610  0.44429384  0.54612162
   0.60638406  0.59482981  0.51423575
   0.56537970  0.38848849  0.47071373
   0.30937104  0.41536570  0.56137133
   0.46911588  0.40248778  0.66507076
   0.45023436  0.33139107  0.57332097
   0.31259997  0.58205414  0.57424868
   0.49125921  0.56903209  0.66010652
   0.45873816  0.65763523  0.58922564
   0.48862100  0.54870248  0.45730186
   0.59523171  0.44270091  0.59403559
   0.67030105  0.63910890  0.51023123
   0.58294516  0.33764793  0.41441929
Direct configuration=    23
   0.37208709  0.54107402  0.58285117
   0.37043298  0.45199454  0.57670480
   0.45549577  0.40164025  0.59289780
   0.46135363  0.58487743  0.59441694
   0.52365525  0.54422895  0.52194220
   0.53949461  0.44420358  0.54613158
   0.60644581  0.59473002  0.51423977
   0.56518464  0.38855945  0.47049082
   0.30933956  0.41536230  0.56180239
   0.46910076  0.40236685  0.66521441
   0.45022015  0.33137119  0.57341127
   0.31250644  0.58193443  0.57417748
   0.49104760  0.56937174  0.66015111
   0.45865347  0.65771928  0.58889988
   0.48863289  0.54861871  0.45741243
   0.59545486  0.44241530  0.59379632
   0.67045067  0.63886956  0.51014600
   0.58277791  0.33802182  0.41395745
Direct configuration=    24
   0.37207690  0.54107345  0.58283055
   0.37044758  0.45198867  0.57680889
   0.45551259  0.40161815  0.59296068
   0.46131688  0.58493618  0.59436857
   0.52367653  0.54419640  0.52200773
   0.53949634  0.44414980  0.54614374
   0.60650036  0.59466703  0.51425387
   0.56509373  0.38863287  0.47038997
   0.30932195  0.41535514  0.56206180
   0.46910044  0.40228012  0.66528296
   0.45019574  0.33135865  0.57345402
   0.31245569  0.58186901  0.57413383
   0.49091776  0.56959640  0.66017819
   0.45859560  0.65776596  0.58868808
   0.48866777  0.54856089  0.45747858
   0.59555995  0.44224994  0.59368093
   0.67052509  0.63870954  0.51010602
   0.58271812  0.33826405  0.41367808
Direct configuration=    25
   0.37207789  0.54107354  0.58283283
   0.37044168  0.45199022  0.57679231
   0.45550352  0.40161966  0.59294135
   0.46132122  0.58492645  0.59437365
   0.52367704  0.54419822  0.52200445
   0.53949235  0.44416139  0.54615002
   0.60648335  0.59465998  0.51426247
   0.56513697  0.38862274  0.47040676
   0.30932547  0.41535230  0.56202033
   0.46910712  0.40228296  0.66525818
   0.45018724  0.33136019  0.57343779
   0.31246796  0.58188469  0.57414018
   0.49093650  0.56957646  0.66017416
   0.45859936  0.65775570  0.58870934
   0.48868369  0.54856436  0.45746743
   0.59552068  0.44228153  0.59372249
   0.67052042  0.63873592  0.51012009
   0.58275347  0.33825793  0.41374306
Direct configuration=    26
   0.37207491  0.54107354  0.58282748
   0.37044335  0.45198908  0.57681694
   0.45550400  0.40161273  0.59295093
   0.46131138  0.58494061  0.59436037
   0.52368376  0.54418789  0.52202470
   0.53949094  0.44414869  0.54615744
   0.60649809  0.59463878  0.51427292
   0.56512881  0.38865246  0.47039580
   0.30932107  0.41534811  0.56208247
   0.46911079  0.40225517  0.66526665
   0.45017344  0.33135658  0.57344141
   0.31245798  0.58187247  0.57412940
   0.49090403  0.56964037  0.66018117
   0.45858189  0.65776569  0.58865025
   0.48870483  0.54854691  0.45748252
   0.59553237  0.44224526  0.59371087
   0.67053870  0.63869387  0.51011545
   0.58275956  0.33832703  0.41367591
Direct configuration=    27
   0.37204881  0.54107384  0.58278607
   0.37043164  0.45198283  0.57700529
   0.45547482  0.40154513  0.59297837
   0.46122815  0.58504976  0.59424401
   0.52374674  0.54408890  0.52220695
   0.53946154  0.44407040  0.54625939
   0.60662737  0.59442967  0.51441290
   0.56521699  0.38888061  0.47030686
   0.30928575  0.41529471  0.56255167
   0.46917268  0.40198674  0.66526394
   0.45000375  0.33132244  0.57341029
   0.31240202  0.58180978  0.57404606
   0.49065122  0.57020775  0.66023825
   0.45841975  0.65783043  0.58813111
   0.48897172  0.54838528  0.45758382
   0.59550708  0.44200106  0.59376211
   0.67067078  0.63835454  0.51012757
   0.58295336  0.33901187  0.41327609
Direct configuration=    28
   0.37205169  0.54107345  0.58279397
   0.37043593  0.45198253  0.57697679
   0.45548197  0.40155350  0.59297965
   0.46124199  0.58503512  0.59426189
   0.52374094  0.54411042  0.52217519
   0.53946967  0.44407731  0.54624148
   0.60656464  0.59443513  0.51439438
   0.56518471  0.38885672  0.47033227
   0.30928769  0.41530375  0.56248349
   0.46916019  0.40203039  0.66527332
   0.45003408  0.33132598  0.57341544
   0.31240682  0.58181682  0.57405906
   0.49068935  0.57011856  0.66022938
   0.45844461  0.65782484  0.58820905
   0.48892005  0.54841191  0.45756510
   0.59552220  0.44203457  0.59375041
   0.67069653  0.63843418  0.51012014
   0.58292071  0.33888909  0.41331167
Direct configuration=    29
   0.37204627  0.54107306  0.58278800
   0.37043381  0.45198081  0.57700730
   0.45547599  0.40153961  0.59298353
   0.46122772  0.58505441  0.59424196
   0.52374919  0.54409294  0.52220613
   0.53946511  0.44406209  0.54626240
   0.60660658  0.59441181  0.51442111
   0.56520213  0.38889687  0.47032048
   0.30927954  0.41529375  0.56256193
   0.46917116  0.40198292  0.66527272
   0.45000318  0.33131854  0.57340508
   0.31239682  0.58180763  0.57404563
   0.49064714  0.57021689  0.66023876
   0.45841542  0.65783732  0.58811699
   0.48896596  0.54838403  0.45757883
   0.59551465  0.44199506  0.59376923
   0.67070819  0.63836644  0.51012519
   0.58296239  0.33900991  0.41324290
Direct configuration=    30
   0.37204236  0.54107303  0.58278518
   0.37043238  0.45197846  0.57702844
   0.45547263  0.40152862  0.59298934
   0.46121778  0.58506977  0.59422776
   0.52375638  0.54408378  0.52222442
   0.53946390  0.44405196  0.54627885
   0.60662534  0.59438840  0.51444251
   0.56521317  0.38891285  0.47029849
   0.30927212  0.41528744  0.56261737
   0.46917728  0.40195078  0.66527632
   0.44998350  0.33131242  0.57339606
   0.31238830  0.58180058  0.57403712
   0.49061851  0.57028459  0.66024488
   0.45839471  0.65784801  0.58805121
   0.48899291  0.54836577  0.45758540
   0.59551323  0.44196746  0.59378444
   0.67072905  0.63832506  0.51012836
   0.58298772  0.33910075  0.41320086
Direct configuration=    31
   0.37203772  0.54107232  0.58278178
   0.37043065  0.45197605  0.57705305
   0.45546902  0.40151600  0.59299550
   0.46120646  0.58508698  0.59421112
   0.52376555  0.54407316  0.52224557
   0.53946292  0.44403813  0.54629429
   0.60663663  0.59435470  0.51446712
   0.56521783  0.38895317  0.47029870
   0.30926393  0.41527988  0.56268136
   0.46918470  0.40191371  0.66528015
   0.44996095  0.33130539  0.57338631
   0.31237869  0.58179212  0.57402745
   0.49058562  0.57036263  0.66025160
   0.45837076  0.65786001  0.58797550
   0.48902460  0.54834469  0.45759346
   0.59551118  0.44193530  0.59380091
   0.67076255  0.63828410  0.51013119
   0.58302216  0.33918739  0.41313140
Direct configuration=    32
   0.37194720  0.54105776  0.58271716
   0.37039616  0.45193023  0.57753362
   0.45539729  0.40127281  0.59311720
   0.46098518  0.58541958  0.59388828
   0.52392747  0.54385750  0.52265732
   0.53943425  0.44379179  0.54661929
   0.60699639  0.59380026  0.51493232
   0.56537488  0.38954494  0.47008507
   0.30910509  0.41513455  0.56392280
   0.46932693  0.40119586  0.66535637
   0.44952610  0.33116918  0.57319846
   0.31219185  0.58162618  0.57384368
   0.48994984  0.57187630  0.66037822
   0.45790496  0.65809298  0.58650749
   0.48963759  0.54793789  0.45775190
   0.59546835  0.44131351  0.59411868
   0.67129615  0.63741039  0.51019671
   0.58362995  0.34101856  0.41196225
Direct configuration=    33
   0.37196510  0.54105811  0.58273244
   0.37040365  0.45193710  0.57743930
   0.45541327  0.40132059  0.59309735
   0.46103003  0.58535374  0.59395222
   0.52389324  0.54390309  0.52257002
   0.53943961  0.44384067  0.54655418
   0.60693602  0.59392518  0.51483445
   0.56534232  0.38939057  0.47009232
   0.30913781  0.41516539  0.56367444
   0.46929657  0.40134344  0.66534709
   0.44962090  0.33119570  0.57323793
   0.31222804  0.58165467  0.57388625
   0.49008170  0.57157002  0.66034317
   0.45799728  0.65804490  0.58680115
   0.48950736  0.54802393  0.45771862
   0.59547996  0.44143816  0.59404972
   0.67118593  0.63757705  0.51018608
   0.58348269  0.34067751  0.41222214
Direct configuration=    34
   0.37195322  0.54105462  0.58272536
   0.37039982  0.45192961  0.57750443
   0.45540533  0.40128809  0.59311595
   0.46100091  0.58539760  0.59390805
   0.52391547  0.54387641  0.52262147
   0.53943645  0.44380471  0.54659257
   0.60697450  0.59384912  0.51489400
   0.56534828  0.38948257  0.47008490
   0.30911733  0.41514691  0.56383902
   0.46931464  0.40125111  0.66536080
   0.44956828  0.33117714  0.57321488
   0.31220253  0.58162970  0.57386561
   0.49000090  0.57176828  0.66035456
   0.45793498  0.65807516  0.58660666
   0.48958411  0.54797311  0.45773871
   0.59547612  0.44135560  0.59408731
   0.67126826  0.63746474  0.51019521
   0.58355777  0.34090510  0.41204481
Direct configuration=    35
   0.37195151  0.54105161  0.58272635
   0.37040034  0.45192592  0.57752017
   0.45540579  0.40128091  0.59312387
   0.46099486  0.58540654  0.59389640
   0.52391900  0.54387280  0.52262719
   0.53943530  0.44379703  0.54659844
   0.60698865  0.59384287  0.51490183
   0.56534044  0.38948773  0.47007314
   0.30911359  0.41514402  0.56387372
   0.46931704  0.40123569  0.66536897
   0.44956497  0.33117260  0.57321278
   0.31219589  0.58161982  0.57386710
   0.48998934  0.57180644  0.66034896
   0.45792091  0.65808070  0.58656580
   0.48959321  0.54796708  0.45774126
   0.59547832  0.44133826  0.59408883
   0.67128545  0.63743654  0.51019924
   0.58355377  0.34095713  0.41201092
Direct configuration=    36
   0.37193549  0.54103863  0.58272306
   0.37039774  0.45190661  0.57763542
   0.45539989  0.40122745  0.59316842
   0.46094803  0.58547714  0.59381405
   0.52395263  0.54383730  0.52269229
   0.53942698  0.44374302  0.54665536
   0.60705299  0.59373881  0.51498358
   0.56532415  0.38957840  0.47001256
   0.30908233  0.41511620  0.56414561
   0.46934353  0.40109790  0.66540874
   0.44950583  0.33113991  0.57318591
   0.31215000  0.58156226  0.57385378
   0.48987667  0.57212080  0.66034115
   0.45781504  0.65812674  0.58624505
   0.48969648  0.54789951  0.45776778
   0.59548294  0.44120252  0.59412642
   0.67143081  0.63724617  0.51021977
   0.58360360  0.34135127  0.41174545
Direct configuration=    37
   0.37193703  0.54103705  0.58272528
   0.37039953  0.45190586  0.57763130
   0.45540247  0.40123072  0.59316915
   0.46095099  0.58547271  0.59381590
   0.52394888  0.54384000  0.52268417
   0.53942722  0.44374416  0.54664723
   0.60705900  0.59375458  0.51497421
   0.56530656  0.38958896  0.47003835
   0.30908449  0.41511785  0.56413135
   0.46934157  0.40110917  0.66541075
   0.44951609  0.33114139  0.57319127
   0.31215140  0.58156109  0.57386016
   0.48988846  0.57210060  0.66033512
   0.45781971  0.65812346  0.58626248
   0.48968513  0.54790729  0.45776425
   0.59548537  0.44120995  0.59411712
   0.67141787  0.63724911  0.51022092
   0.58359016  0.34130924  0.41173371
Direct configuration=    38
   0.37193433  0.54103448  0.58272496
   0.37039973  0.45190247  0.57765081
   0.45540167  0.40122190  0.59317695
   0.46094325  0.58548437  0.59380171
   0.52395405  0.54383386  0.52269505
   0.53942481  0.44373654  0.54665888
   0.60707188  0.59373785  0.51498734
   0.56530742  0.38959268  0.47001241
   0.30907923  0.41511299  0.56417714
   0.46934597  0.40108645  0.66541771
   0.44950697  0.33113608  0.57318775
   0.31214342  0.58155089  0.57385901
   0.48987054  0.57215312  0.66033313
   0.45780160  0.65813123  0.58620872
   0.48970197  0.54789644  0.45776816
   0.59548622  0.44118750  0.59412229
   0.67144109  0.63721506  0.51022527
   0.58359180  0.34138591  0.41170012
Direct configuration=    39
   0.37193280  0.54103190  0.58272540
   0.37040004  0.45189895  0.57766581
   0.45540170  0.40121565  0.59318391
   0.46093806  0.58549248  0.59379021
   0.52395817  0.54383071  0.52270062
   0.53942319  0.44373031  0.54666417
   0.60707584  0.59372361  0.51499552
   0.56529872  0.38960783  0.47000974
   0.30907579  0.41510935  0.56421050
   0.46934909  0.40107127  0.66542409
   0.44950294  0.33113213  0.57318678
   0.31213736  0.58154183  0.57386026
   0.48985983  0.57218985  0.66032950
   0.45778814  0.65813629  0.58616978
   0.48971249  0.54788994  0.45777021
   0.59548815  0.44117140  0.59412348
   0.67146341  0.63719330  0.51022854
   0.58359054  0.34142760  0.41166030
Direct configuration=    40
   0.37192938  0.54102655  0.58272611
   0.37040027  0.45189202  0.57769813
   0.45540166  0.40120251  0.59319828
   0.46092664  0.58551019  0.59376618
   0.52396510  0.54382231  0.52271348
   0.53941942  0.44371779  0.54667677
   0.60710019  0.59370332  0.51501254
   0.56528545  0.38963040  0.46999212
   0.30906810  0.41510140  0.56428273
   0.46935596  0.40103809  0.66543747
   0.44949326  0.33112363  0.57318433
   0.31212423  0.58152289  0.57386239
   0.48983592  0.57226986  0.66032262
   0.45775900  0.65814738  0.58608548
   0.48973587  0.54787537  0.45777478
   0.59549163  0.44113673  0.59412675
   0.67149752  0.63713765  0.51023643
   0.58358734  0.34152543  0.41158513
Direct configuration=    41
   0.37192515  0.54101929  0.58272770
   0.37040083  0.45188320  0.57773941
   0.45540202  0.40118609  0.59321712
   0.46091235  0.58553252  0.59373550
   0.52397506  0.54381302  0.52272868
   0.53941429  0.44370330  0.54669353
   0.60711816  0.59366825  0.51503431
   0.56527085  0.38964877  0.46995477
   0.30905850  0.41509117  0.56437378
   0.46936447  0.40099710  0.66545528
   0.44948280  0.33111307  0.57318255
   0.31210748  0.58149800  0.57386696
   0.48980756  0.57236990  0.66031227
   0.45772197  0.65816122  0.58597957
   0.48976414  0.54785796  0.45777944
   0.59549648  0.44109383  0.59412918
   0.67155176  0.63707266  0.51024693
   0.58357518  0.34165849  0.41150006
Direct configuration=    42
   0.37188968  0.54096157  0.58273764
   0.37040419  0.45181078  0.57807840
   0.45540384  0.40104973  0.59336830
   0.46079319  0.58571812  0.59348413
   0.52405215  0.54372935  0.52285964
   0.53937685  0.44357048  0.54681971
   0.60732261  0.59341391  0.51521459
   0.56512056  0.38990754  0.46977958
   0.30897865  0.41500614  0.56512841
   0.46943644  0.40065287  0.66559717
   0.44938722  0.33102559  0.57316281
   0.31197017  0.58129692  0.57389643
   0.48956465  0.57320317  0.66023463
   0.45741640  0.65827674  0.58510078
   0.49000564  0.54770829  0.45782158