   16   16    1    1
  0.3916525E+03  0.2169110E-08  0.1718710E-08  0.1680880E-08  0.5000000E-15
  1.000000000000000E-004
  CAR 
 unknown system                          
     32      1     28
 
  0.0000000E+00  0.0000000E+00  0.0000000E+00  0.1000000E+01
      1        -21.621225   1.000000
      2        -19.328098   1.000000
      3        -17.380314   1.000000
      4        -15.121430   1.000000
      5        -14.163261   1.000000
      6        -11.703996   1.000000
      7        -11.035814   1.000000
      8        -10.681937   1.000000
      9        -10.186148   1.000000
     10         -9.688988   1.000000
     11         -8.728611   1.000000
     12         -8.531861   1.000000
     13         -8.157402   1.000000
     14         -8.006872   1.000000
     15         -7.532373   1.000000
     16         -5.629619   1.000000
     17         -0.607664   0.000000
     18         -0.288916   0.000000
     19         -0.051278   0.000000
     20          0.030296   0.000000
     21          0.102851   0.000000
     22          0.296412   0.000000
     23          0.383341   0.000000
     24          0.473921   0.000000
     25          0.594080   0.000000
     26          0.613782   0.000000
     27          0.681665   0.000000
     28          0.816863   0.000000
