       N       E                     dE             d eps       ncg     rms          rms(c)
DAV:   1     0.222513153137E+03    0.22251E+03   -0.71532E+03    72   0.625E+02
DAV:   2     0.397521478280E+02   -0.18276E+03   -0.17153E+03   104   0.975E+01
DAV:   3    -0.796614720970E+02   -0.11941E+03   -0.11758E+03    88   0.767E+01
DAV:   4    -0.942454044377E+02   -0.14584E+02   -0.14558E+02    80   0.380E+01
DAV:   5    -0.945827440196E+02   -0.33734E+00   -0.33661E+00    80   0.760E+00    0.153E+01
RMM:   6    -0.867914080039E+02    0.77913E+01   -0.11269E+01    80   0.134E+01    0.787E+00
RMM:   7    -0.852453156779E+02    0.15461E+01   -0.89901E+00    80   0.115E+01    0.386E+00
RMM:   8    -0.849761629202E+02    0.26915E+00   -0.10742E+00    80   0.438E+00    0.109E+00
RMM:   9    -0.848738295218E+02    0.10233E+00   -0.24032E-01    81   0.227E+00    0.416E-01
RMM:  10    -0.848830556664E+02   -0.92261E-02   -0.14778E-01    82   0.144E+00    0.455E-01
RMM:  11    -0.848772268471E+02    0.58288E-02   -0.35294E-02    80   0.102E+00    0.172E-01
RMM:  12    -0.848800439129E+02   -0.28171E-02   -0.62803E-03    81   0.381E-01    0.105E-01
RMM:  13    -0.848871600195E+02   -0.71161E-02   -0.15431E-02    81   0.391E-01    0.118E-01
RMM:  14    -0.848904469743E+02   -0.32870E-02   -0.16975E-03    80   0.207E-01    0.630E-02
RMM:  15    -0.848970373300E+02   -0.65904E-02   -0.28899E-03    80   0.196E-01    0.299E-02
RMM:  16    -0.848997790061E+02   -0.27417E-02   -0.53312E-04    75   0.946E-02    0.186E-02
RMM:  17    -0.849024429228E+02   -0.26639E-02   -0.45611E-04    73   0.644E-02    0.124E-02
RMM:  18    -0.849028935520E+02   -0.45063E-03   -0.12624E-04    67   0.344E-02    0.575E-03
RMM:  19    -0.849034786206E+02   -0.58507E-03   -0.71046E-05    64   0.247E-02    0.233E-03
RMM:  20    -0.849035655620E+02   -0.86941E-04   -0.25500E-05    63   0.175E-02
   1 F= -.85041434E+02 E0= -.85041434E+02  d E =-.107724E-12
