   17   17 5000    1
  0.2149333E+03  0.1540225E-08  0.1540225E-08  0.1540225E-08  0.1000000E-15
  1.000000000000000E-004
  CAR 
 unknown system                          
     42      1     30
 
  0.0000000E+00  0.0000000E+00  0.0000000E+00  0.1000000E+01
      1        -22.353342   1.000000
      2        -20.101156   1.000000
      3        -19.881332   1.000000
      4        -18.057955   1.000000
      5        -15.983704   1.000000
      6        -15.399537   1.000000
      7        -13.001220   1.000000
      8        -12.890487   1.000000
      9        -12.144332   1.000000
     10        -11.431373   1.000000
     11        -10.809780   1.000000
     12        -10.173772   1.000000
     13         -9.742868   1.000000
     14         -9.204441   1.000000
     15         -8.711026   1.000000
     16         -8.497439   1.000000
     17         -8.321568   1.000000
     18         -8.136291   1.000000
     19         -7.959683   1.000000
     20         -6.799491   1.000000
     21         -5.882106   1.000000
     22         -2.361058   0.000000
     23         -2.204853   0.000000
     24         -0.683176   0.000000
     25         -0.230686   0.000000
     26         -0.085459   0.000000
     27          0.072433   0.000000
     28          0.296281   0.000000
     29          0.425450   0.000000
     30          0.492654   0.000000
