 vasp.6.3.2 27Jun22 (build Oct 05 2023 17:59:42) gamma-only                     
  
 executed on             LinuxIFC date 2024.04.05  18:28:44
 running on   18 total cores
 each image running on    2 cores
 distrk:  each k-point on    2 cores,    1 groups
 distr:  one band on NCORE=   1 cores,    2 groups


--------------------------------------------------------------------------------------------------------


 INCAR:
   ENCUT = 400.000000
   SIGMA = 0.050000
   ALGO = Fast
   GGA = PE
   ISMEAR = 0
   ISPIN = 1
   IVDW = 11
   LCHARG = .FALSE.
   LWAVE = .FALSE.
   EDIFF = 1E-05
   EDIFFG = -0.05
   NSW = 5000
   IBRION = 1
   SPRING = -5
   POTIM = 0.1
   PREC = NORMAL
   IMAGES = 9
   LCLIMB = .TRUE.

 POTCAR:    PAW_PBE C 08Apr2002                   
 POTCAR:    PAW_PBE H 15Jun2001                   
 POTCAR:    PAW_PBE N 08Apr2002                   
 POTCAR:    PAW_PBE C 08Apr2002                   
   SHA256 =  253f7b50bb8d59471dbedb8285d89021f4a42ed1a2c5d38a03a736e69125dd95 C/POTCAR              
   COPYR  = (c) Copyright 08Apr2002 Georg Kresse                                                    
   COPYR  = This file is part of the software VASP. Any use, copying, and all other rights are regul
   COPYR  = If you do not have a valid VASP license, you may not use, copy or distribute this file. 
   VRHFIN =C: s2p2                                                                                  
   LEXCH  = PE                                                                                      
   EATOM  =   147.1560 eV,   10.8157 Ry                                                             
                                                                                                    
   TITEL  = PAW_PBE C 08Apr2002                                                                     
   LULTRA =        F    use ultrasoft PP ?                                                          
   IUNSCR =        1    unscreen: 0-lin 1-nonlin 2-no                                               
   RPACOR =    1.200    partial core radius                                                         
   POMASS =   12.011; ZVAL   =    4.000    mass and valenz                                          
   RCORE  =    1.500    outmost cutoff radius                                                       
   RWIGS  =    1.630; RWIGS  =    0.863    wigner-seitz radius (au A)                               
   ENMAX  =  400.000; ENMIN  =  300.000 eV                                                          
   ICORE  =        2    local potential                                                             
   LCOR   =        T    correct aug charges                                                         
   LPAW   =        T    paw PP                                                                      
   EAUG   =  644.873                                                                                
   DEXC   =    0.000                                                                                
   RMAX   =    1.529    core radius for proj-oper                                                   
   RAUG   =    1.300    factor for augmentation sphere                                              
   RDEP   =    1.501    radius for radial grids                                                     
   RDEPT  =    1.300    core radius for aug-charge                                                  
                                                                                                    
   Atomic configuration                                                                             
    4 entries                                                                                       
     n  l   j            E        occ.                                                              
     1  0  0.50      -273.3789   2.0000                                                             
     2  0  0.50       -13.7508   2.0000                                                             
     2  1  0.50        -5.2854   2.0000                                                             
     3  2  1.50        -5.4423   0.0000                                                             
   Description                                                                                      
     l       E           TYP  RCUT    TYP  RCUT                                                     
     0    -13.7508458     23  1.200                                                                 
     0     -8.2022199     23  1.200                                                                 
     1     -5.2854383     23  1.500                                                                 
     1     34.0145650     23  1.500                                                                 
     2     -5.4423304      7  1.500                                                                 
  local pseudopotential read in
  partial core-charges read in
  partial kinetic energy density read in
  atomic valenz-charges read in
  non local Contribution for L=           0  read in
    real space projection operators read in
  non local Contribution for L=           0  read in
    real space projection operators read in
  non local Contribution for L=           1  read in
    real space projection operators read in
  non local Contribution for L=           1  read in
    real space projection operators read in
    PAW grid and wavefunctions read in
 
   number of l-projection  operators is LMAX  =           4
   number of lm-projection operators is LMMAX =           8
 
 POTCAR:    PAW_PBE H 15Jun2001                   
   SHA256 =  030f79b5d3ab3cf0e668861823c8fb652ff669f3e15e46930bd03bfd63a607b6 H/POTCAR              
   COPYR  = (c) Copyright 15Jun2001 Georg Kresse                                                    
   COPYR  = This file is part of the software VASP. Any use, copying, and all other rights are regul
   COPYR  = If you do not have a valid VASP license, you may not use, copy or distribute this file. 
   VRHFIN =H: ultrasoft test                                                                        
   LEXCH  = PE                                                                                      
   EATOM  =    12.4884 eV,    0.9179 Ry                                                             
                                                                                                    
   TITEL  = PAW_PBE H 15Jun2001                                                                     
   LULTRA =        F    use ultrasoft PP ?                                                          
   IUNSCR =        0    unscreen: 0-lin 1-nonlin 2-no                                               
   RPACOR =    0.000    partial core radius                                                         
   POMASS =    1.000; ZVAL   =    1.000    mass and valenz                                          
   RCORE  =    1.100    outmost cutoff radius                                                       
   RWIGS  =    0.700; RWIGS  =    0.370    wigner-seitz radius (au A)                               
   ENMAX  =  250.000; ENMIN  =  200.000 eV                                                          
   RCLOC  =    0.701    cutoff for local pot                                                        
   LCOR   =        T    correct aug charges                                                         
   LPAW   =        T    paw PP                                                                      
   EAUG   =  400.000                                                                                
   RMAX   =    1.123    core radius for proj-oper                                                   
   RAUG   =    1.200    factor for augmentation sphere                                              
   RDEP   =    1.112    radius for radial grids                                                     
   RDEPT  =    0.926    core radius for aug-charge                                                  
                                                                                                    
   Atomic configuration                                                                             
    2 entries                                                                                       
     n  l   j            E        occ.                                                              
     1  0  0.50        -6.4927   1.0000                                                             
     2  1  0.50        -3.4015   0.0000                                                             
   Description                                                                                      
     l       E           TYP  RCUT    TYP  RCUT                                                     
     0     -6.4927494     23  1.100                                                                 
     0      6.8029130     23  1.100                                                                 
     1     -4.0817478     23  1.100                                                                 
  local pseudopotential read in
  atomic valenz-charges read in
  non local Contribution for L=           0  read in
    real space projection operators read in
  non local Contribution for L=           0  read in
    real space projection operators read in
  non local Contribution for L=           1  read in
    real space projection operators read in
    PAW grid and wavefunctions read in
 
   number of l-projection  operators is LMAX  =           3
   number of lm-projection operators is LMMAX =           5
 
 POTCAR:    PAW_PBE N 08Apr2002                   
   SHA256 =  e053789ff3a61a86a1b75d8a110fcc91f86041011e7b0817c7c99e4e8a6349d7 N/POTCAR              
   COPYR  = (c) Copyright 08Apr2002 Georg Kresse                                                    
   COPYR  = This file is part of the software VASP. Any use, copying, and all other rights are regul
   COPYR  = If you do not have a valid VASP license, you may not use, copy or distribute this file. 
   VRHFIN =N: s2p3                                                                                  
   LEXCH  = PE                                                                                      
   EATOM  =   264.5486 eV,   19.4438 Ry                                                             
                                                                                                    
   TITEL  = PAW_PBE N 08Apr2002                                                                     
   LULTRA =        F    use ultrasoft PP ?                                                          
   IUNSCR =        1    unscreen: 0-lin 1-nonlin 2-no                                               
   RPACOR =    1.200    partial core radius                                                         
   POMASS =   14.001; ZVAL   =    5.000    mass and valenz                                          
   RCORE  =    1.500    outmost cutoff radius                                                       
   RWIGS  =    1.400; RWIGS  =    0.741    wigner-seitz radius (au A)                               
   ENMAX  =  400.000; ENMIN  =  300.000 eV                                                          
   ICORE  =        2    local potential                                                             
   LCOR   =        T    correct aug charges                                                         
   LPAW   =        T    paw PP                                                                      
   EAUG   =  627.112                                                                                
   DEXC   =    0.000                                                                                
   RMAX   =    1.529    core radius for proj-oper                                                   
   RAUG   =    1.300    factor for augmentation sphere                                              
   RDEP   =    1.514    radius for radial grids                                                     
   RDEPT  =    1.338    core radius for aug-charge                                                  
                                                                                                    
   Atomic configuration                                                                             
    4 entries                                                                                       
     n  l   j            E        occ.                                                              
     1  0  0.50      -384.7179   2.0000                                                             
     2  0  0.50       -18.5828   2.0000                                                             
     2  1  0.50        -7.0898   3.0000                                                             
     3  2  1.50        -6.8029   0.0000                                                             
   Description                                                                                      
     l       E           TYP  RCUT    TYP  RCUT                                                     
     0    -18.5828119     23  1.200                                                                 
     0    -13.5018863     23  1.200                                                                 
     1     -7.0897853     23  1.500                                                                 
     1      9.5240782     23  1.500                                                                 
     2     -6.8029130      7  1.500                                                                 
  local pseudopotential read in
  partial core-charges read in
  partial kinetic energy density read in
  atomic valenz-charges read in
  non local Contribution for L=           0  read in
    real space projection operators read in
  non local Contribution for L=           0  read in
    real space projection operators read in
  non local Contribution for L=           1  read in
    real space projection operators read in
  non local Contribution for L=           1  read in
    real space projection operators read in
    PAW grid and wavefunctions read in
 
   number of l-projection  operators is LMAX  =           4
   number of lm-projection operators is LMMAX =           8
 
 -----------------------------------------------------------------------------
|                                                                             |
|               ----> ADVICE to this user running VASP <----                  |
|                                                                             |
|     You have a (more or less) 'large supercell' and for larger cells it     |
|     might be more efficient to use real-space projection operators.         |
|     Therefore, try LREAL= Auto in the INCAR file.                           |
|     Mind: For very accurate calculation, you might also keep the            |
|     reciprocal projection scheme (i.e. LREAL=.FALSE.).                      |
|                                                                             |
 -----------------------------------------------------------------------------

  PAW_PBE C 08Apr2002                   :
 energy of atom  1       EATOM= -147.1560
 kinetic energy error for atom=    0.0288 (will be added to EATOM!!)
  PAW_PBE H 15Jun2001                   :
 energy of atom  2       EATOM=  -12.4884
 kinetic energy error for atom=    0.0098 (will be added to EATOM!!)
  PAW_PBE N 08Apr2002                   :
 energy of atom  3       EATOM= -264.5486
 kinetic energy error for atom=    0.0736 (will be added to EATOM!!)
 
 
 POSCAR:  C  H  N
  positions in cartesian coordinates
  No initial velocities read in
 exchange correlation table for  LEXCH =        8
   RHO(1)=    0.500       N(1)  =     2000
   RHO(2)=  100.500       N(2)  =     4000

 VTST: version 4.1, (05/19/21)

 CHAIN: initializing optimizer
 
 OPT: Using VASP QUASI-newton optimizer
 CHAIN: Read ICHAIN            0
 CHAIN: Running the NEB
 NEB:          SPRING     -5.000000
 NEB:          LCLIMB      T
 NEB:     LTANGENTOLD      F
 NEB:           LDNEB      F
 NEB:        LDNEBORG      F
 NEB:        LNEBCELL      F
 NEB:          EFIRST      0.000000
 NEB:           ELAST      0.000000
 
 POSCAR:  C  H  N
  positions in cartesian coordinates
  No initial velocities read in
 
 POSCAR:  C  H  N
  positions in cartesian coordinates
  No initial velocities read in
 
 POSCAR:  C  H  N
  positions in cartesian coordinates
  No initial velocities read in
 
 POSCAR:  C  H  N
  positions in cartesian coordinates
  No initial velocities read in
 


--------------------------------------------------------------------------------------------------------


 ion  position               nearest neighbor table
   1  0.338  0.438  0.577-   8 1.09   4 1.35   2 1.45
   2  0.333  0.532  0.579-  11 1.09   3 1.34   1 1.45
   3  0.403  0.585  0.571-  13 1.09  12 1.09   2 1.34
   4  0.412  0.392  0.567-   9 1.09  10 1.09   1 1.35
   5  0.459  0.441  0.407-  14 1.08  15 1.08   6 1.35
   6  0.457  0.528  0.408-  16 1.08   5 1.35   7 1.42
   7  0.533  0.580  0.412-  17 1.17   6 1.42
   8  0.276  0.404  0.576-   1 1.09
   9  0.474  0.426  0.568-   4 1.09
  10  0.413  0.322  0.558-   4 1.09
  11  0.269  0.560  0.580-   2 1.09
  12  0.468  0.559  0.569-   3 1.09
  13  0.397  0.655  0.565-   3 1.09
  14  0.400  0.403  0.405-   5 1.08
  15  0.520  0.405  0.409-   5 1.08
  16  0.396  0.563  0.409-   6 1.08
  17  0.595  0.624  0.416-   7 1.17
 
  LATTYP: Found a simple cubic cell.
 ALAT       =    15.4022502899
  
  Lattice vectors:
  
 A1 = (  15.4022502899,   0.0000000000,   0.0000000000)
 A2 = (   0.0000000000,  15.4022502899,   0.0000000000)
 A3 = (   0.0000000000,   0.0000000000,  15.4022502899)


Analysis of symmetry for initial positions (statically):
=====================================================================
 Subroutine PRICEL returns:
 Original cell was already a primitive cell.
 

 Routine SETGRP: Setting up the symmetry group for a 
 simple cubic supercell.


 Subroutine GETGRP returns: Found  1 space group operations
 (whereof  1 operations were pure point group operations)
 out of a pool of 48 trial point group operations.


The static configuration has the point symmetry C_1 .


Analysis of symmetry for dynamics (positions and initial velocities):
=====================================================================
 Subroutine PRICEL returns:
 Original cell was already a primitive cell.
 

 Routine SETGRP: Setting up the symmetry group for a 
 simple cubic supercell.


 Subroutine GETGRP returns: Found  1 space group operations
 (whereof  1 operations were pure point group operations)
 out of a pool of 48 trial point group operations.


The dynamic configuration has the point symmetry C_1 .


 Subroutine INISYM returns: Found  1 space group operations
 (whereof  1 operations are pure point group operations),
 and found     1 'primitive' translations


----------------------------------------------------------------------------------------

                                     Primitive cell                                     

  volume of cell :    3653.8653

  direct lattice vectors                    reciprocal lattice vectors
    15.402250290  0.000000000  0.000000000     0.064925578  0.000000000  0.000000000
     0.000000000 15.402250290  0.000000000     0.000000000  0.064925578  0.000000000
     0.000000000  0.000000000 15.402250290     0.000000000  0.000000000  0.064925578

  length of vectors
    15.402250290 15.402250290 15.402250290     0.064925578  0.064925578  0.064925578

  position of ions in fractional coordinates (direct lattice)
     0.337829477  0.438100850  0.576654566
     0.333407811  0.532101796  0.578726884
     0.402527031  0.584885314  0.571206362
     0.411772845  0.392442980  0.567340578
     0.458948743  0.440642545  0.407186037
     0.456875137  0.527947418  0.408277409
     0.532950844  0.579639338  0.411991317
     0.275652496  0.404296156  0.576181284
     0.473857155  0.425718367  0.568472521
     0.412856335  0.322482023  0.558160994
     0.268548549  0.560157207  0.579677048
     0.468205800  0.559099152  0.568682942
     0.396990145  0.654984173  0.565401090
     0.399668910  0.403066844  0.405485649
     0.519849552  0.405288978  0.408655833
     0.396083421  0.563451261  0.408743508
     0.594637492  0.623789687  0.416043907

  ion indices of the primitive-cell ions
   primitive index   ion index
                 1           1
                 2           2
                 3           3
                 4           4
                 5           5
                 6           6
                 7           7
                 8           8
                 9           9
                10          10
                11          11
                12          12
                13          13
                14          14
                15          15
                16          16
                17          17

----------------------------------------------------------------------------------------

 
 
 KPOINTS: KPOINTS created by Atomic Simulation Env

Automatic generation of k-mesh.
 Grid dimensions read from file:
 generate k-points for:    1    1    1

 Generating k-lattice:

  Cartesian coordinates                     Fractional coordinates (reciprocal lattice)
     0.064925578  0.000000000  0.000000000     1.000000000  0.000000000  0.000000000
     0.000000000  0.064925578  0.000000000     0.000000000  1.000000000  0.000000000
     0.000000000  0.000000000  0.064925578     0.000000000  0.000000000  1.000000000

  Length of vectors
     0.064925578  0.064925578  0.064925578

  Shift w.r.t. Gamma in fractional coordinates (k-lattice)
     0.000000000  0.000000000  0.000000000

 
 Subroutine IBZKPT returns following result:
 ===========================================
 
 Found      1 irreducible k-points:
 
 Following reciprocal coordinates:
            Coordinates               Weight
  0.000000  0.000000  0.000000      1.000000
 
 Following cartesian coordinates:
            Coordinates               Weight
  0.000000  0.000000  0.000000      1.000000
 


--------------------------------------------------------------------------------------------------------




 Dimension of arrays:
   k-points           NKPTS =      1   k-points in BZ     NKDIM =      1   number of bands    NBANDS=     30
   number of dos      NEDOS =    301   number of ions     NIONS =     17
   non local maximal  LDIM  =      4   non local SUM 2l+1 LMDIM =      8
   total plane-waves  NPLWV = 512000
   max r-space proj   IRMAX =      1   max aug-charges    IRDMAX=   1924
   dimension x,y,z NGX =    80 NGY =   80 NGZ =   80
   dimension x,y,z NGXF=   160 NGYF=  160 NGZF=  160
   support grid    NGXF=   160 NGYF=  160 NGZF=  160
   ions per type =               7   9   1
   NGX,Y,Z   is equivalent  to a cutoff of   8.63,  8.63,  8.63 a.u.
   NGXF,Y,Z  is equivalent  to a cutoff of  17.27, 17.27, 17.27 a.u.

 SYSTEM =  unknown system                          
 POSCAR =   C  H  N                                

 Startparameter for this run:
   NWRITE =      2    write-flag & timer
   PREC   = normal    normal or accurate (medium, high low for compatibility)
   ISTART =      0    job   : 0-new  1-cont  2-samecut
   ICHARG =      2    charge: 1-file 2-atom 10-const
   ISPIN  =      1    spin polarized calculation?
   LNONCOLLINEAR =      F non collinear calculations
   LSORBIT =      F    spin-orbit coupling
   INIWAV =      1    electr: 0-lowe 1-rand  2-diag
   LASPH  =      F    aspherical Exc in radial PAW
 Electronic Relaxation 1
   ENCUT  =  400.0 eV  29.40 Ry    5.42 a.u.  25.12 25.12 25.12*2*pi/ulx,y,z
   ENINI  =  400.0     initial cutoff
   ENAUG  =  644.9 eV  augmentation charge cutoff
   NELM   =     60;   NELMIN=  2; NELMDL= -5     # of ELM steps 
   EDIFF  = 0.1E-04   stopping-criterion for ELM
   LREAL  =      F    real-space projection
   NLSPLINE    = F    spline interpolate recip. space projectors
   LCOMPAT=      F    compatible to vasp.4.4
   GGA_COMPAT  = T    GGA compatible to vasp.4.4-vasp.4.6
   LMAXPAW     = -100 max onsite density
   LMAXMIX     =    2 max onsite mixed and CHGCAR
   VOSKOWN=      0    Vosko Wilk Nusair interpolation
   ROPT   =    0.00000   0.00000   0.00000
 Ionic relaxation
   EDIFFG = -.5E-01   stopping-criterion for IOM
   NSW    =   5000    number of steps for IOM
   NBLOCK =      1;   KBLOCK =   5000    inner block; outer block 
   IBRION =      1    ionic relax: 0-MD 1-quasi-New 2-CG
   NFREE  =      0    steps in history (QN), initial steepest desc. (CG)
   ISIF   =      2    stress and relaxation
   IWAVPR =     11    prediction:  0-non 1-charg 2-wave 3-comb
   ISYM   =      2    0-nonsym 1-usesym 2-fastsym
   LCORR  =      T    Harris-Foulkes like correction to forces

   POTIM  = 0.1000    time-step for ionic-motion
   TEIN   =    0.0    initial temperature
   TEBEG  =    0.0;   TEEND  =   0.0 temperature during run
   SMASS  =  -3.00    Nose mass-parameter (am)
   estimated Nose-frequenzy (Omega)   =  0.10E-29 period in steps = 0.63E+47 mass=  -0.542E-26a.u.
   SCALEE = 1.0000    scale energy and forces
   NPACO  =    256;   APACO  = 10.0  distance and # of slots for P.C.
   PSTRESS=    0.0 pullay stress

  Mass of Ions in am
   POMASS =  12.01  1.00 14.00
  Ionic Valenz
   ZVAL   =   4.00  1.00  5.00
  Atomic Wigner-Seitz radii
   RWIGS  =  -1.00 -1.00 -1.00
  virtual crystal weights 
   VCA    =   1.00  1.00  1.00
   NELECT =      42.0000    total number of electrons
   NUPDOWN=      -1.0000    fix difference up-down

 DOS related values:
   EMIN   =  10.00;   EMAX   =-10.00  energy-range for DOS
   EFERMI =   0.00
   ISMEAR =     0;   SIGMA  =   0.05  broadening in eV -4-tet -1-fermi 0-gaus

 Electronic relaxation 2 (details)
   IALGO  =     68    algorithm
   LDIAG  =      T    sub-space diagonalisation (order eigenvalues)
   LSUBROT=      F    optimize rotation matrix (better conditioning)
   TURBO    =      0    0=normal 1=particle mesh
   IRESTART =      0    0=no restart 2=restart with 2 vectors
   NREBOOT  =      0    no. of reboots
   NMIN     =      0    reboot dimension
   EREF     =   0.00    reference energy to select bands
   IMIX   =      4    mixing-type and parameters
     AMIX     =   0.40;   BMIX     =  1.00
     AMIX_MAG =   1.60;   BMIX_MAG =  1.00
     AMIN     =   0.10
     WC   =   100.;   INIMIX=   1;  MIXPRE=   1;  MAXMIX= -45

 Intra band minimization:
   WEIMIN = 0.0010     energy-eigenvalue tresh-hold
   EBREAK =  0.83E-07  absolut break condition
   DEPER  =   0.30     relativ break condition  

   TIME   =   0.40     timestep for ELM

  volume/ion in A,a.u.               =     214.93      1450.44
  Fermi-wavevector in a.u.,A,eV,Ry     =   0.369465  0.698188  1.857259  0.136505
  Thomas-Fermi vector in A             =   1.296107
 
 Write flags
   LWAVE        =      F    write WAVECAR
   LDOWNSAMPLE  =      F    k-point downsampling of WAVECAR
   LCHARG       =      F    write CHGCAR
   LVTOT        =      F    write LOCPOT, total local potential
   LVHAR        =      F    write LOCPOT, Hartree potential only
   LELF         =      F    write electronic localiz. function (ELF)
   LORBIT       =      0    0 simple, 1 ext, 2 COOP (PROOUT), +10 PAW based schemes


 Dipole corrections
   LMONO  =      F    monopole corrections only (constant potential shift)
   LDIPOL =      F    correct potential (dipole corrections)
   IDIPOL =      0    1-x, 2-y, 3-z, 4-all directions 
   EPSILON=  1.0000000 bulk dielectric constant

 Exchange correlation treatment:
   GGA     =    PE    GGA type
   LEXCH   =     8    internal setting for exchange type
   LIBXC   =     F    Libxc                    
   VOSKOWN =     0    Vosko Wilk Nusair interpolation
   LHFCALC =     F    Hartree Fock is set to
   LHFONE  =     F    Hartree Fock one center treatment
   AEXX    =    0.0000 exact exchange contribution

 Linear response parameters
   LEPSILON=     F    determine dielectric tensor
   LRPA    =     F    only Hartree local field effects (RPA)
   LNABLA  =     F    use nabla operator in PAW spheres
   LVEL    =     F    velocity operator in full k-point grid
   CSHIFT  =0.1000    complex shift for real part using Kramers Kronig
   OMEGAMAX=  -1.0    maximum frequency
   DEG_THRESHOLD= 0.2000000E-02 threshold for treating states as degnerate
   RTIME   =   -0.100 relaxation time in fs
  (WPLASMAI=    0.000 imaginary part of plasma frequency in eV, 0.658/RTIME)
   DFIELD  = 0.0000000 0.0000000 0.0000000 field for delta impulse in time
 
  Optional k-point grid parameters
   LKPOINTS_OPT  =     F    use optional k-point grid
   KPOINTS_OPT_MODE=     1    mode for optional k-point grid
 
 Orbital magnetization related:
   ORBITALMAG=     F  switch on orbital magnetization
   LCHIMAG   =     F  perturbation theory with respect to B field
   DQ        =  0.001000  dq finite difference perturbation B field
   LLRAUG    =     F  two centre corrections for induced B field



--------------------------------------------------------------------------------------------------------


 quasi-Newton-method for relaxation of ions
 charge density and potential will be updated during run
 non-spin polarized calculation
 RMM-DIIS sequential band-by-band and
  variant of blocked Davidson during initial phase
 perform sub-space diagonalisation
    before iterative eigenvector-optimisation
 modified Broyden-mixing scheme, WC =      100.0
 initial mixing is a Kerker type mixing with AMIX =  0.4000 and BMIX =      1.0000
 Hartree-type preconditioning will be used
 using additional bands            9
 reciprocal scheme for non local part
 use partial core corrections
 calculate Harris-corrections to forces 
   (improved forces if not selfconsistent)
 use gradient corrections 
 use of overlap-Matrix (Vanderbilt PP)
 Gauss-broadening in eV      SIGMA  =   0.05


--------------------------------------------------------------------------------------------------------


  energy-cutoff  :      400.00
  volume of cell :     3653.87
      direct lattice vectors                 reciprocal lattice vectors
    15.402250290  0.000000000  0.000000000     0.064925578  0.000000000  0.000000000
     0.000000000 15.402250290  0.000000000     0.000000000  0.064925578  0.000000000
     0.000000000  0.000000000 15.402250290     0.000000000  0.000000000  0.064925578

  length of vectors
    15.402250290 15.402250290 15.402250290     0.064925578  0.064925578  0.064925578


 
 k-points in units of 2pi/SCALE and weight: KPOINTS created by Atomic Simulation Env
   0.00000000  0.00000000  0.00000000       1.000
 
 k-points in reciprocal lattice and weights: KPOINTS created by Atomic Simulation Env
   0.00000000  0.00000000  0.00000000       1.000
 
 position of ions in fractional coordinates (direct lattice) 
   0.33782948  0.43810085  0.57665457
   0.33340781  0.53210180  0.57872688
   0.40252703  0.58488531  0.57120636
   0.41177284  0.39244298  0.56734058
   0.45894874  0.44064255  0.40718604
   0.45687514  0.52794742  0.40827741
   0.53295084  0.57963934  0.41199132
   0.27565250  0.40429616  0.57618128
   0.47385715  0.42571837  0.56847252
   0.41285634  0.32248202  0.55816099
   0.26854855  0.56015721  0.57967705
   0.46820580  0.55909915  0.56868294
   0.39699014  0.65498417  0.56540109
   0.39966891  0.40306684  0.40548565
   0.51984955  0.40528898  0.40865583
   0.39608342  0.56345126  0.40874351
   0.59463749  0.62378969  0.41604391
 
 position of ions in cartesian coordinates  (Angst):
   5.20333416  6.74773894  8.88177796
   5.13523055  8.19556504  8.91369631
   6.19982208  9.00855000  8.79786335
   6.34222842  6.04450501  8.73832159
   7.06884340  6.78688677  6.27158125
   7.03690522  8.13157827  6.28839084
   8.20864229  8.92775016  6.34559338
   4.24566873  6.22707058  8.87448835
   7.29846650  6.55702084  8.75575605
   6.35891661  4.96694884  8.59693533
   4.13625196  8.62768150  8.92833099
   7.21142293  8.61138508  8.75899701
   6.11454157 10.08823016  8.70844910
   6.15580058  6.20813641  6.24539145
   8.00685291  6.24236228  6.29421943
   6.10057599  8.67841735  6.29556981
   9.15875549  9.60776489  6.40801239
 


--------------------------------------------------------------------------------------------------------


 use serial FFT for orbitals x direction half grid
 k-point   1 :   0.0000 0.0000 0.0000  plane waves:   33270

 maximum and minimum number of plane-waves per node :     33270    33270

 maximum number of plane-waves:     33270
 maximum index in each direction: 
   IXMAX=   25   IYMAX=   25   IZMAX=   25
   IXMIN=    0   IYMIN=  -25   IZMIN=  -25


 serial   3D FFT for wavefunctions
 parallel 3D FFT for charge:
    minimum data exchange during FFTs selected (reduces bandwidth)


 total amount of memory used by VASP MPI-rank0   277942. kBytes
=======================================================================

   base      :      30000. kBytes
   nonl-proj :      15437. kBytes
   fftplans  :      71598. kBytes
   grid      :     152883. kBytes
   one-center:         26. kBytes
   wavefun   :       7998. kBytes
 
     INWAV:  cpu time      0.0000: real time      0.0000
 Broyden mixing: mesh for mixing (old mesh)
   NGX = 51   NGY = 51   NGZ = 51
  (NGX  =160   NGY  =160   NGZ  =160)
  gives a total of 132651 points

 initial charge density was supplied:
 charge density of overlapping atoms calculated
 number of electron      42.0000000 magnetization 
 keeping initial charge density in first step


--------------------------------------------------------------------------------------------------------


 Maximum index for augmentation-charges          833 (set IRDMAX)


--------------------------------------------------------------------------------------------------------


 First call to EWALD:  gamma=   0.115
 Maximum number of real-space cells 3x 3x 3
 Maximum number of reciprocal cells 3x 3x 3

    FEWALD:  cpu time      0.0012: real time      0.0012


--------------------------------------- Iteration      1(   1)  ---------------------------------------


    POTLOK:  cpu time      2.1407: real time      2.1411
    SETDIJ:  cpu time      0.0051: real time      0.0051
     EDDAV:  cpu time      3.6389: real time      3.6401
       DOS:  cpu time      0.0004: real time      0.0005
    --------------------------------------------
      LOOP:  cpu time      5.7851: real time      5.7868

 eigenvalue-minimisations  :    76
 total energy-change (2. order) : 0.3319239E+03  (-0.1014732E+04)
 number of electron      42.0000000 magnetization 
 augmentation part       42.0000000 magnetization 

 Free energy of the ion-electron system (eV)
  ---------------------------------------------------
  alpha Z        PSCENC =         2.15216506
  Ewald energy   TEWEN  =      2271.50176100
  -Hartree energ DENC   =     -3213.85570735
  -exchange      EXHF   =         0.00000000
  -V(xc)+E(xc)   XCENC  =       129.73617207
  PAW double counting   =       983.79330320     -989.05002801
  entropy T*S    EENTRO =        -0.00049736
  eigenvalues    EBANDS =      -259.02655077
  atomic energy  EATOM  =      1406.67326350
  Solvation  Ediel_sol  =         0.00000000
  ---------------------------------------------------
  free energy    TOTEN  =       331.92388132 eV

  energy without entropy =      331.92437869  energy(sigma->0) =      331.92413001


--------------------------------------------------------------------------------------------------------




--------------------------------------- Iteration      1(   2)  ---------------------------------------


     EDDAV:  cpu time      3.8736: real time      3.8758
       DOS:  cpu time      0.0003: real time      0.0004
    --------------------------------------------
      LOOP:  cpu time      3.8739: real time      3.8762

 eigenvalue-minimisations  :    88
 total energy-change (2. order) :-0.2571075E+03  (-0.2441771E+03)
 number of electron      42.0000000 magnetization 
 augmentation part       42.0000000 magnetization 

 Free energy of the ion-electron system (eV)
  ---------------------------------------------------
  alpha Z        PSCENC =         2.15216506
  Ewald energy   TEWEN  =      2271.50176100
  -Hartree energ DENC   =     -3213.85570735
  -exchange      EXHF   =         0.00000000
  -V(xc)+E(xc)   XCENC  =       129.73617207
  PAW double counting   =       983.79330320     -989.05002801
  entropy T*S    EENTRO =        -0.00000000
  eigenvalues    EBANDS =      -516.13459705
  atomic energy  EATOM  =      1406.67326350
  Solvation  Ediel_sol  =         0.00000000
  ---------------------------------------------------
  free energy    TOTEN  =        74.81633241 eV

  energy without entropy =       74.81633241  energy(sigma->0) =       74.81633241


--------------------------------------------------------------------------------------------------------




--------------------------------------- Iteration      1(   3)  ---------------------------------------


     EDDAV:  cpu time      3.9192: real time      3.9202
       DOS:  cpu time      0.0007: real time      0.0007
    --------------------------------------------
      LOOP:  cpu time      3.9198: real time      3.9209

 eigenvalue-minimisations  :    80
 total energy-change (2. order) :-0.1655792E+03  (-0.1649401E+03)
 number of electron      42.0000000 magnetization 
 augmentation part       42.0000000 magnetization 

 Free energy of the ion-electron system (eV)
  ---------------------------------------------------
  alpha Z        PSCENC =         2.15216506
  Ewald energy   TEWEN  =      2271.50176100
  -Hartree energ DENC   =     -3213.85570735
  -exchange      EXHF   =         0.00000000
  -V(xc)+E(xc)   XCENC  =       129.73617207
  PAW double counting   =       983.79330320     -989.05002801
  entropy T*S    EENTRO =        -0.00000000
  eigenvalues    EBANDS =      -681.71377658
  atomic energy  EATOM  =      1406.67326350
  Solvation  Ediel_sol  =         0.00000000
  ---------------------------------------------------
  free energy    TOTEN  =       -90.76284712 eV

  energy without entropy =      -90.76284712  energy(sigma->0) =      -90.76284712


--------------------------------------------------------------------------------------------------------




--------------------------------------- Iteration      1(   4)  ---------------------------------------


     EDDAV:  cpu time      4.2656: real time      4.2668
       DOS:  cpu time      0.0003: real time      0.0004
    --------------------------------------------
      LOOP:  cpu time      4.2659: real time      4.2672

 eigenvalue-minimisations  :    88
 total energy-change (2. order) :-0.2141573E+02  (-0.2137302E+02)
 number of electron      42.0000000 magnetization 
 augmentation part       42.0000000 magnetization 

 Free energy of the ion-electron system (eV)
  ---------------------------------------------------
  alpha Z        PSCENC =         2.15216506
  Ewald energy   TEWEN  =      2271.50176100
  -Hartree energ DENC   =     -3213.85570735
  -exchange      EXHF   =         0.00000000
  -V(xc)+E(xc)   XCENC  =       129.73617207
  PAW double counting   =       983.79330320     -989.05002801
  entropy T*S    EENTRO =        -0.00000000
  eigenvalues    EBANDS =      -703.12950225
  atomic energy  EATOM  =      1406.67326350
  Solvation  Ediel_sol  =         0.00000000
  ---------------------------------------------------
  free energy    TOTEN  =      -112.17857279 eV

  energy without entropy =     -112.17857279  energy(sigma->0) =     -112.17857279


--------------------------------------------------------------------------------------------------------




--------------------------------------- Iteration      1(   5)  ---------------------------------------


     EDDAV:  cpu time      3.9970: real time      4.0451
       DOS:  cpu time      0.0004: real time      0.0004
    CHARGE:  cpu time      0.4202: real time      0.4204
    MIXING:  cpu time      0.0646: real time      0.0646
    --------------------------------------------
      LOOP:  cpu time      4.4823: real time      4.5307

 eigenvalue-minimisations  :    80
 total energy-change (2. order) :-0.3208169E+00  (-0.3198853E+00)
 number of electron      42.0000002 magnetization 
 augmentation part        1.1946854 magnetization 

 Broyden mixing:
  rms(total) = 0.17364E+01    rms(broyden)= 0.17358E+01
  rms(prec ) = 0.19965E+01
  weight for this iteration     100.00

 Free energy of the ion-electron system (eV)
  ---------------------------------------------------
  alpha Z        PSCENC =         2.15216506
  Ewald energy   TEWEN  =      2271.50176100
  -Hartree energ DENC   =     -3213.85570735
  -exchange      EXHF   =         0.00000000
  -V(xc)+E(xc)   XCENC  =       129.73617207
  PAW double counting   =       983.79330320     -989.05002801
  entropy T*S    EENTRO =        -0.00000000
  eigenvalues    EBANDS =      -703.45031915
  atomic energy  EATOM  =      1406.67326350
  Solvation  Ediel_sol  =         0.00000000
  ---------------------------------------------------
  free energy    TOTEN  =      -112.49938969 eV

  energy without entropy =     -112.49938969  energy(sigma->0) =     -112.49938969


--------------------------------------------------------------------------------------------------------




--------------------------------------- Iteration      1(   6)  ---------------------------------------


    POTLOK:  cpu time      2.1678: real time      2.2132
    SETDIJ:  cpu time      0.0060: real time      0.0060
    EDDIAG:  cpu time      0.7022: real time      0.7347
  RMM-DIIS:  cpu time      2.8592: real time      2.8898
    ORTHCH:  cpu time      0.0308: real time      0.0393
       DOS:  cpu time      0.0003: real time      0.0003
    CHARGE:  cpu time      0.4118: real time      0.4118
    MIXING:  cpu time      0.0988: real time      0.0988
    --------------------------------------------
      LOOP:  cpu time      6.2769: real time      6.3939

 eigenvalue-minimisations  :    60
 total energy-change (2. order) : 0.8809663E+01  (-0.1258850E+01)
 number of electron      42.0000004 magnetization 
 augmentation part        1.1030396 magnetization 

 Broyden mixing:
  rms(total) = 0.93915E+00    rms(broyden)= 0.93906E+00
  rms(prec ) = 0.10599E+01
  weight for this iteration     100.00

 eigenvalues of (default mixing * dielectric matrix)
  average eigenvalue GAMMA=   1.7079
  1.7079

 Free energy of the ion-electron system (eV)
  ---------------------------------------------------
  alpha Z        PSCENC =         2.15216506
  Ewald energy   TEWEN  =      2271.50176100
  -Hartree energ DENC   =     -3295.47732222
  -exchange      EXHF   =         0.00000000
  -V(xc)+E(xc)   XCENC  =       134.07343104
  PAW double counting   =      1777.83324640    -1783.92548674
  entropy T*S    EENTRO =        -0.00000000
  eigenvalues    EBANDS =      -616.52078499
  atomic energy  EATOM  =      1406.67326350
  Solvation  Ediel_sol  =         0.00000000
  ---------------------------------------------------
  free energy    TOTEN  =      -103.68972696 eV

  energy without entropy =     -103.68972696  energy(sigma->0) =     -103.68972696


--------------------------------------------------------------------------------------------------------




--------------------------------------- Iteration      1(   7)  ---------------------------------------


    POTLOK:  cpu time      2.3014: real time      2.3017
    SETDIJ:  cpu time      0.0104: real time      0.0104
    EDDIAG:  cpu time      0.5862: real time      0.6521
  RMM-DIIS:  cpu time      3.1163: real time      3.1175
    ORTHCH:  cpu time      0.0294: real time      0.0295
       DOS:  cpu time      0.0002: real time      0.0002
    CHARGE:  cpu time      0.3871: real time      0.3871
    MIXING:  cpu time      0.1011: real time      0.1011
    --------------------------------------------
      LOOP:  cpu time      6.5322: real time      6.5997

 eigenvalue-minimisations  :    60
 total energy-change (2. order) : 0.2053436E+01  (-0.1197794E+01)
 number of electron      42.0000005 magnetization 
 augmentation part        1.0389867 magnetization 

 Broyden mixing:
  rms(total) = 0.39511E+00    rms(broyden)= 0.39491E+00
  rms(prec ) = 0.42974E+00
  weight for this iteration     100.00

 eigenvalues of (default mixing * dielectric matrix)
  average eigenvalue GAMMA=   1.4400
  1.0511  1.8288

 Free energy of the ion-electron system (eV)
  ---------------------------------------------------
  alpha Z        PSCENC =         2.15216506
  Ewald energy   TEWEN  =      2271.50176100
  -Hartree energ DENC   =     -3369.18301491
  -exchange      EXHF   =         0.00000000
  -V(xc)+E(xc)   XCENC  =       138.06091297
  PAW double counting   =      2859.77240389    -2866.38778378
  entropy T*S    EENTRO =        -0.00000000
  eigenvalues    EBANDS =      -544.22599859
  atomic energy  EATOM  =      1406.67326350
  Solvation  Ediel_sol  =         0.00000000
  ---------------------------------------------------
  free energy    TOTEN  =      -101.63629087 eV

  energy without entropy =     -101.63629087  energy(sigma->0) =     -101.63629087


--------------------------------------------------------------------------------------------------------




--------------------------------------- Iteration      1(   8)  ---------------------------------------


    POTLOK:  cpu time      2.1559: real time      2.1562
    SETDIJ:  cpu time      0.0215: real time      0.0215
    EDDIAG:  cpu time      0.6194: real time      0.6194
  RMM-DIIS:  cpu time      3.0053: real time      3.0056
    ORTHCH:  cpu time      0.0340: real time      0.0341
       DOS:  cpu time      0.0003: real time      0.0003
    CHARGE:  cpu time      0.4875: real time      0.4876
    MIXING:  cpu time      0.0866: real time      0.0866
    --------------------------------------------
      LOOP:  cpu time      6.4104: real time      6.4112

 eigenvalue-minimisations  :    60
 total energy-change (2. order) : 0.1632684E+00  (-0.7028083E-01)
 number of electron      42.0000006 magnetization 
 augmentation part        1.0287922 magnetization 

 Broyden mixing:
  rms(total) = 0.23691E+00    rms(broyden)= 0.23688E+00
  rms(prec ) = 0.25963E+00
  weight for this iteration     100.00

 eigenvalues of (default mixing * dielectric matrix)
  average eigenvalue GAMMA=   1.7641
  2.6701  1.8086  0.8136

 Free energy of the ion-electron system (eV)
  ---------------------------------------------------
  alpha Z        PSCENC =         2.15216506
  Ewald energy   TEWEN  =      2271.50176100
  -Hartree energ DENC   =     -3376.37857223
  -exchange      EXHF   =         0.00000000
  -V(xc)+E(xc)   XCENC  =       138.58548846
  PAW double counting   =      3160.33125721    -3166.85972935
  entropy T*S    EENTRO =        -0.00000000
  eigenvalues    EBANDS =      -537.47865615
  atomic energy  EATOM  =      1406.67326350
  Solvation  Ediel_sol  =         0.00000000
  ---------------------------------------------------
  free energy    TOTEN  =      -101.47302249 eV

  energy without entropy =     -101.47302249  energy(sigma->0) =     -101.47302249


--------------------------------------------------------------------------------------------------------




--------------------------------------- Iteration      1(   9)  ---------------------------------------


    POTLOK:  cpu time      2.3100: real time      2.5663
    SETDIJ:  cpu time      0.0062: real time      0.0063
    EDDIAG:  cpu time      0.6448: real time      0.6451
  RMM-DIIS:  cpu time      3.1215: real time      3.1224
    ORTHCH:  cpu time      0.0255: real time      0.0257
       DOS:  cpu time      0.0003: real time      0.0003
    CHARGE:  cpu time      0.4132: real time      0.4132
    MIXING:  cpu time      0.1013: real time      0.1012
    --------------------------------------------
      LOOP:  cpu time      6.6228: real time      6.8806

 eigenvalue-minimisations  :    60
 total energy-change (2. order) : 0.9180227E-01  (-0.4695562E-01)
 number of electron      42.0000006 magnetization 
 augmentation part        1.0282715 magnetization 

 Broyden mixing:
  rms(total) = 0.64811E-01    rms(broyden)= 0.64798E-01
  rms(prec ) = 0.86423E-01
  weight for this iteration     100.00

 eigenvalues of (default mixing * dielectric matrix)
  average eigenvalue GAMMA=   1.4651
  2.3409  1.6548  0.9323  0.9323

 Free energy of the ion-electron system (eV)
  ---------------------------------------------------
  alpha Z        PSCENC =         2.15216506
  Ewald energy   TEWEN  =      2271.50176100
  -Hartree energ DENC   =     -3385.07190539
  -exchange      EXHF   =         0.00000000
  -V(xc)+E(xc)   XCENC  =       139.16112619
  PAW double counting   =      3586.97640814    -3593.31752410
  entropy T*S    EENTRO =        -0.00000000
  eigenvalues    EBANDS =      -529.45651462
  atomic energy  EATOM  =      1406.67326350
  Solvation  Ediel_sol  =         0.00000000
  ---------------------------------------------------
  free energy    TOTEN  =      -101.38122022 eV

  energy without entropy =     -101.38122022  energy(sigma->0) =     -101.38122022


--------------------------------------------------------------------------------------------------------




--------------------------------------- Iteration      1(  10)  ---------------------------------------


    POTLOK:  cpu time      2.2127: real time      2.2130
    SETDIJ:  cpu time      0.0324: real time      0.0324
    EDDIAG:  cpu time      0.5961: real time      0.5962
  RMM-DIIS:  cpu time      3.1941: real time      3.1955
    ORTHCH:  cpu time      0.0255: real time      0.0257
       DOS:  cpu time      0.0003: real time      0.0003
    CHARGE:  cpu time      0.3489: real time      0.3490
    MIXING:  cpu time      0.0967: real time      0.0967
    --------------------------------------------
      LOOP:  cpu time      6.5067: real time      6.5087

 eigenvalue-minimisations  :    64
 total energy-change (2. order) : 0.5677392E-02  (-0.7197135E-02)
 number of electron      42.0000006 magnetization 
 augmentation part        1.0260840 magnetization 

 Broyden mixing:
  rms(total) = 0.30931E-01    rms(broyden)= 0.30923E-01
  rms(prec ) = 0.54051E-01
  weight for this iteration     100.00

 eigenvalues of (default mixing * dielectric matrix)
  average eigenvalue GAMMA=   1.4422
  1.9868  1.8197  0.8284  1.4516  1.1244

 Free energy of the ion-electron system (eV)
  ---------------------------------------------------
  alpha Z        PSCENC =         2.15216506
  Ewald energy   TEWEN  =      2271.50176100
  -Hartree energ DENC   =     -3387.87940457
  -exchange      EXHF   =         0.00000000
  -V(xc)+E(xc)   XCENC  =       139.19341034
  PAW double counting   =      3540.10192033    -3546.48240026
  entropy T*S    EENTRO =        -0.00000000
  eigenvalues    EBANDS =      -526.63625822
  atomic energy  EATOM  =      1406.67326350
  Solvation  Ediel_sol  =         0.00000000
  ---------------------------------------------------
  free energy    TOTEN  =      -101.37554283 eV

  energy without entropy =     -101.37554283  energy(sigma->0) =     -101.37554283


--------------------------------------------------------------------------------------------------------




--------------------------------------- Iteration      1(  11)  ---------------------------------------


    POTLOK:  cpu time      2.2456: real time      2.2458
    SETDIJ:  cpu time      0.0331: real time      0.0331
    EDDIAG:  cpu time      0.6382: real time      0.6384
  RMM-DIIS:  cpu time      3.1442: real time      3.1444
    ORTHCH:  cpu time      0.0253: real time      0.0254
       DOS:  cpu time      0.0003: real time      0.0003
    CHARGE:  cpu time      0.3491: real time      0.3491
    MIXING:  cpu time      0.1227: real time      0.1227
    --------------------------------------------
      LOOP:  cpu time      6.5583: real time      6.5591

 eigenvalue-minimisations  :    60
 total energy-change (2. order) :-0.6664590E-02  (-0.8755985E-02)
 number of electron      42.0000006 magnetization 
 augmentation part        1.0244000 magnetization 

 Broyden mixing:
  rms(total) = 0.34252E-01    rms(broyden)= 0.34244E-01
  rms(prec ) = 0.46217E-01
  weight for this iteration     100.00

 eigenvalues of (default mixing * dielectric matrix)
  average eigenvalue GAMMA=   1.5061
  2.3890  2.3890  1.2629  1.2629  0.9396  0.7934

 Free energy of the ion-electron system (eV)
  ---------------------------------------------------
  alpha Z        PSCENC =         2.15216506
  Ewald energy   TEWEN  =      2271.50176100
  -Hartree energ DENC   =     -3394.93787268
  -exchange      EXHF   =         0.00000000
  -V(xc)+E(xc)   XCENC  =       139.27605526
  PAW double counting   =      3505.10072338    -3511.49132548
  entropy T*S    EENTRO =        -0.00000000
  eigenvalues    EBANDS =      -519.65697745
  atomic energy  EATOM  =      1406.67326350
  Solvation  Ediel_sol  =         0.00000000
  ---------------------------------------------------
  free energy    TOTEN  =      -101.38220742 eV

  energy without entropy =     -101.38220742  energy(sigma->0) =     -101.38220742


--------------------------------------------------------------------------------------------------------




--------------------------------------- Iteration      1(  12)  ---------------------------------------


    POTLOK:  cpu time      2.1436: real time      2.1440
    SETDIJ:  cpu time      0.0315: real time      0.0315
    EDDIAG:  cpu time      0.3872: real time      0.3876
  RMM-DIIS:  cpu time      2.3166: real time      2.3171
    ORTHCH:  cpu time      0.0154: real time      0.0154
       DOS:  cpu time      0.0002: real time      0.0002
    CHARGE:  cpu time      0.2538: real time      0.2538
    MIXING:  cpu time      0.0529: real time      0.0529
    --------------------------------------------
      LOOP:  cpu time      5.2012: real time      5.2026

 eigenvalue-minimisations  :    61
 total energy-change (2. order) : 0.1995234E-02  (-0.8049378E-03)
 number of electron      42.0000006 magnetization 
 augmentation part        1.0235967 magnetization 

 Broyden mixing:
  rms(total) = 0.23605E-01    rms(broyden)= 0.23603E-01
  rms(prec ) = 0.32987E-01
  weight for this iteration     100.00

 eigenvalues of (default mixing * dielectric matrix)
  average eigenvalue GAMMA=   1.6265
  2.6847  2.6847  1.3921  1.3921  1.4525  0.8126  0.9671

 Free energy of the ion-electron system (eV)
  ---------------------------------------------------
  alpha Z        PSCENC =         2.15216506
  Ewald energy   TEWEN  =      2271.50176100
  -Hartree energ DENC   =     -3396.74397261
  -exchange      EXHF   =         0.00000000
  -V(xc)+E(xc)   XCENC  =       139.31044635
  PAW double counting   =      3518.96855101    -3525.34239644
  entropy T*S    EENTRO =        -0.00000000
  eigenvalues    EBANDS =      -517.90003005
  atomic energy  EATOM  =      1406.67326350
  Solvation  Ediel_sol  =         0.00000000
  ---------------------------------------------------
  free energy    TOTEN  =      -101.38021218 eV

  energy without entropy =     -101.38021218  energy(sigma->0) =     -101.38021218


--------------------------------------------------------------------------------------------------------




--------------------------------------- Iteration      1(  13)  ---------------------------------------


    POTLOK:  cpu time      1.9606: real time      1.9611
    SETDIJ:  cpu time      0.0227: real time      0.0227
    EDDIAG:  cpu time      0.4416: real time      0.4416
  RMM-DIIS:  cpu time      1.7214: real time      1.7219
    ORTHCH:  cpu time      0.0110: real time      0.0110
       DOS:  cpu time      0.0002: real time      0.0002
    CHARGE:  cpu time      0.2037: real time      0.2037
    MIXING:  cpu time      0.0429: real time      0.0429
    --------------------------------------------
      LOOP:  cpu time      4.4041: real time      4.4052

 eigenvalue-minimisations  :    60
 total energy-change (2. order) :-0.6616516E-02  (-0.1330454E-02)
 number of electron      42.0000006 magnetization 
 augmentation part        1.0229520 magnetization 

 Broyden mixing:
  rms(total) = 0.65159E-02    rms(broyden)= 0.65063E-02
  rms(prec ) = 0.11781E-01
  weight for this iteration     100.00

 eigenvalues of (default mixing * dielectric matrix)
  average eigenvalue GAMMA=   1.7060
  3.9410  2.5193  1.7641  1.3366  1.3366  1.0221  0.8255  0.9031

 Free energy of the ion-electron system (eV)
  ---------------------------------------------------
  alpha Z        PSCENC =         2.15216506
  Ewald energy   TEWEN  =      2271.50176100
  -Hartree energ DENC   =     -3399.62951725
  -exchange      EXHF   =         0.00000000
  -V(xc)+E(xc)   XCENC  =       139.33928883
  PAW double counting   =      3511.90729780    -3518.26888070
  entropy T*S    EENTRO =        -0.00000000
  eigenvalues    EBANDS =      -515.06220693
  atomic energy  EATOM  =      1406.67326350
  Solvation  Ediel_sol  =         0.00000000
  ---------------------------------------------------
  free energy    TOTEN  =      -101.38682870 eV

  energy without entropy =     -101.38682870  energy(sigma->0) =     -101.38682870


--------------------------------------------------------------------------------------------------------




--------------------------------------- Iteration      1(  14)  ---------------------------------------


    POTLOK:  cpu time      1.1483: real time      1.1486
    SETDIJ:  cpu time      0.0031: real time      0.0031
    EDDIAG:  cpu time      0.2112: real time      0.2112
  RMM-DIIS:  cpu time      1.2815: real time      1.2817
    ORTHCH:  cpu time      0.0097: real time      0.0097
       DOS:  cpu time      0.0001: real time      0.0001
    CHARGE:  cpu time      0.1423: real time      0.1423
    MIXING:  cpu time      0.0381: real time      0.0381
    --------------------------------------------
      LOOP:  cpu time      2.8343: real time      2.8349

 eigenvalue-minimisations  :    62
 total energy-change (2. order) :-0.4509197E-02  (-0.3678846E-03)
 number of electron      42.0000006 magnetization 
 augmentation part        1.0225438 magnetization 

 Broyden mixing:
  rms(total) = 0.71107E-02    rms(broyden)= 0.71085E-02
  rms(prec ) = 0.10496E-01
  weight for this iteration     100.00

 eigenvalues of (default mixing * dielectric matrix)
  average eigenvalue GAMMA=   1.7972
  4.2218  2.7321  1.9215  1.9215  1.3289  1.3289  0.8058  0.9571  0.9571

 Free energy of the ion-electron system (eV)
  ---------------------------------------------------
  alpha Z        PSCENC =         2.15216506
  Ewald energy   TEWEN  =      2271.50176100
  -Hartree energ DENC   =     -3400.78118273
  -exchange      EXHF   =         0.00000000
  -V(xc)+E(xc)   XCENC  =       139.36053167
  PAW double counting   =      3515.51020887    -3521.87270444
  entropy T*S    EENTRO =        -0.00000000
  eigenvalues    EBANDS =      -513.93538081
  atomic energy  EATOM  =      1406.67326350
  Solvation  Ediel_sol  =         0.00000000
  ---------------------------------------------------
  free energy    TOTEN  =      -101.39133790 eV

  energy without entropy =     -101.39133790  energy(sigma->0) =     -101.39133790


--------------------------------------------------------------------------------------------------------




--------------------------------------- Iteration      1(  15)  ---------------------------------------


    POTLOK:  cpu time      1.0153: real time      1.0155
    SETDIJ:  cpu time      0.0027: real time      0.0027
    EDDIAG:  cpu time      0.1960: real time      0.1960
  RMM-DIIS:  cpu time      1.3876: real time      1.3878
    ORTHCH:  cpu time      0.0091: real time      0.0091
       DOS:  cpu time      0.0001: real time      0.0001
    CHARGE:  cpu time      0.1622: real time      0.1622
    MIXING:  cpu time      0.0632: real time      0.0632
    --------------------------------------------
      LOOP:  cpu time      2.8362: real time      2.8368

 eigenvalue-minimisations  :    60
 total energy-change (2. order) :-0.1017856E-01  (-0.1767284E-03)
 number of electron      42.0000006 magnetization 
 augmentation part        1.0226369 magnetization 

 Broyden mixing:
  rms(total) = 0.28340E-02    rms(broyden)= 0.28328E-02
  rms(prec ) = 0.46442E-02
  weight for this iteration     100.00

 eigenvalues of (default mixing * dielectric matrix)
  average eigenvalue GAMMA=   1.9290
  6.1398  2.7178  2.3036  1.6312  1.3619  1.3619  1.1823  0.8948  0.8948  0.8014

 Free energy of the ion-electron system (eV)
  ---------------------------------------------------
  alpha Z        PSCENC =         2.15216506
  Ewald energy   TEWEN  =      2271.50176100
  -Hartree energ DENC   =     -3401.40608471
  -exchange      EXHF   =         0.00000000
  -V(xc)+E(xc)   XCENC  =       139.34337294
  PAW double counting   =      3510.08504821    -3516.45027341
  entropy T*S    EENTRO =        -0.00000000
  eigenvalues    EBANDS =      -513.30076904
  atomic energy  EATOM  =      1406.67326350
  Solvation  Ediel_sol  =         0.00000000
  ---------------------------------------------------
  free energy    TOTEN  =      -101.40151646 eV

  energy without entropy =     -101.40151646  energy(sigma->0) =     -101.40151646


--------------------------------------------------------------------------------------------------------




--------------------------------------- Iteration      1(  16)  ---------------------------------------


    POTLOK:  cpu time      1.1245: real time      1.1247
    SETDIJ:  cpu time      0.0033: real time      0.0033
    EDDIAG:  cpu time      0.2002: real time      0.2003
  RMM-DIIS:  cpu time      1.1145: real time      1.1147
    ORTHCH:  cpu time      0.0068: real time      0.0068
       DOS:  cpu time      0.0001: real time      0.0001
    CHARGE:  cpu time      0.1427: real time      0.1428
    MIXING:  cpu time      0.0745: real time      0.0745
    --------------------------------------------
      LOOP:  cpu time      2.6667: real time      2.6672

 eigenvalue-minimisations  :    60
 total energy-change (2. order) :-0.2481786E-02  (-0.8233151E-04)
 number of electron      42.0000006 magnetization 
 augmentation part        1.0224734 magnetization 

 Broyden mixing:
  rms(total) = 0.26404E-02    rms(broyden)= 0.26401E-02
  rms(prec ) = 0.38095E-02
  weight for this iteration     100.00

 eigenvalues of (default mixing * dielectric matrix)
  average eigenvalue GAMMA=   2.0273
  6.9690  3.0227  2.2848  1.4100  1.4100  1.6881  1.4178  1.4178  0.9370  0.9370
  0.8068

 Free energy of the ion-electron system (eV)
  ---------------------------------------------------
  alpha Z        PSCENC =         2.15216506
  Ewald energy   TEWEN  =      2271.50176100
  -Hartree energ DENC   =     -3401.75394049
  -exchange      EXHF   =         0.00000000
  -V(xc)+E(xc)   XCENC  =       139.34664719
  PAW double counting   =      3509.75708644    -3516.12444951
  entropy T*S    EENTRO =        -0.00000000
  eigenvalues    EBANDS =      -512.95653142
  atomic energy  EATOM  =      1406.67326350
  Solvation  Ediel_sol  =         0.00000000
  ---------------------------------------------------
  free energy    TOTEN  =      -101.40399824 eV

  energy without entropy =     -101.40399824  energy(sigma->0) =     -101.40399824


--------------------------------------------------------------------------------------------------------




--------------------------------------- Iteration      1(  17)  ---------------------------------------


    POTLOK:  cpu time      1.0498: real time      1.0585
    SETDIJ:  cpu time      0.0028: real time      0.0028
    EDDIAG:  cpu time      0.1991: real time      0.1991
  RMM-DIIS:  cpu time      1.2693: real time      1.2695
    ORTHCH:  cpu time      0.0095: real time      0.0095
       DOS:  cpu time      0.0001: real time      0.0001
    CHARGE:  cpu time      0.1761: real time      0.1761
    MIXING:  cpu time      0.0428: real time      0.0428
    --------------------------------------------
      LOOP:  cpu time      2.7496: real time      2.7586

 eigenvalue-minimisations  :    60
 total energy-change (2. order) :-0.3449594E-02  (-0.6826944E-04)
 number of electron      42.0000006 magnetization 
 augmentation part        1.0223194 magnetization 

 Broyden mixing:
  rms(total) = 0.15187E-02    rms(broyden)= 0.15180E-02
  rms(prec ) = 0.20674E-02
  weight for this iteration     100.00

 eigenvalues of (default mixing * dielectric matrix)
  average eigenvalue GAMMA=   2.1174
  7.5604  3.9987  2.4795  2.1082  1.3772  1.3772  1.4453  1.4453  0.8100  0.9345
  0.9345  0.9381

 Free energy of the ion-electron system (eV)
  ---------------------------------------------------
  alpha Z        PSCENC =         2.15216506
  Ewald energy   TEWEN  =      2271.50176100
  -Hartree energ DENC   =     -3401.62844729
  -exchange      EXHF   =         0.00000000
  -V(xc)+E(xc)   XCENC  =       139.33523087
  PAW double counting   =      3511.04383542    -3517.40975212
  entropy T*S    EENTRO =        -0.00000000
  eigenvalues    EBANDS =      -513.07550428
  atomic energy  EATOM  =      1406.67326350
  Solvation  Ediel_sol  =         0.00000000
  ---------------------------------------------------
  free energy    TOTEN  =      -101.40744784 eV

  energy without entropy =     -101.40744784  energy(sigma->0) =     -101.40744784


--------------------------------------------------------------------------------------------------------




--------------------------------------- Iteration      1(  18)  ---------------------------------------


    POTLOK:  cpu time      1.0808: real time      1.0810
    SETDIJ:  cpu time      0.0031: real time      0.0031
    EDDIAG:  cpu time      0.2679: real time      0.2680
  RMM-DIIS:  cpu time      1.3414: real time      1.3418
    ORTHCH:  cpu time      0.0075: real time      0.0075
       DOS:  cpu time      0.0001: real time      0.0001
    CHARGE:  cpu time      0.1538: real time      0.1539
    MIXING:  cpu time      0.0641: real time      0.0641
    --------------------------------------------
      LOOP:  cpu time      2.9189: real time      2.9196

 eigenvalue-minimisations  :    58
 total energy-change (2. order) :-0.8276356E-03  (-0.3135841E-04)
 number of electron      42.0000006 magnetization 
 augmentation part        1.0223122 magnetization 

 Broyden mixing:
  rms(total) = 0.12496E-02    rms(broyden)= 0.12495E-02
  rms(prec ) = 0.15847E-02
  weight for this iteration     100.00

 eigenvalues of (default mixing * dielectric matrix)
  average eigenvalue GAMMA=   2.1401
  8.0459  4.4741  2.4512  2.0522  1.3753  1.3753  1.5690  1.5690  1.2684  0.8056
  0.9891  0.9231  0.9231

 Free energy of the ion-electron system (eV)
  ---------------------------------------------------
  alpha Z        PSCENC =         2.15216506
  Ewald energy   TEWEN  =      2271.50176100
  -Hartree energ DENC   =     -3401.61756821
  -exchange      EXHF   =         0.00000000
  -V(xc)+E(xc)   XCENC  =       139.33227400
  PAW double counting   =      3512.27883143    -3518.64385020
  entropy T*S    EENTRO =        -0.00000000
  eigenvalues    EBANDS =      -513.08515205
  atomic energy  EATOM  =      1406.67326350
  Solvation  Ediel_sol  =         0.00000000
  ---------------------------------------------------
  free energy    TOTEN  =      -101.40827547 eV

  energy without entropy =     -101.40827547  energy(sigma->0) =     -101.40827547


--------------------------------------------------------------------------------------------------------




--------------------------------------- Iteration      1(  19)  ---------------------------------------


    POTLOK:  cpu time      1.3586: real time      1.3755
    SETDIJ:  cpu time      0.0043: real time      0.0043
    EDDIAG:  cpu time      0.4437: real time      0.4448
  RMM-DIIS:  cpu time      2.4675: real time      2.4735
    ORTHCH:  cpu time      0.0139: real time      0.0139
       DOS:  cpu time      0.0002: real time      0.0002
    CHARGE:  cpu time      0.2931: real time      0.2937
    MIXING:  cpu time      0.1284: real time      0.1284
    --------------------------------------------
      LOOP:  cpu time      4.7097: real time      4.7343

 eigenvalue-minimisations  :    52
 total energy-change (2. order) :-0.4492460E-03  (-0.7848175E-05)
 number of electron      42.0000006 magnetization 
 augmentation part        1.0222888 magnetization 

 Broyden mixing:
  rms(total) = 0.32431E-03    rms(broyden)= 0.32377E-03
  rms(prec ) = 0.58234E-03
  weight for this iteration     100.00

 eigenvalues of (default mixing * dielectric matrix)
  average eigenvalue GAMMA=   2.1670
  8.5643  4.8212  2.4501  2.4501  1.9464  1.3717  1.3717  1.3527  1.3527  0.8076
  1.0226  1.0226  0.9019  0.9019

 Free energy of the ion-electron system (eV)
  ---------------------------------------------------
  alpha Z        PSCENC =         2.15216506
  Ewald energy   TEWEN  =      2271.50176100
  -Hartree energ DENC   =     -3401.62103384
  -exchange      EXHF   =         0.00000000
  -V(xc)+E(xc)   XCENC  =       139.33118830
  PAW double counting   =      3511.52991000    -3517.89566368
  entropy T*S    EENTRO =        -0.00000000
  eigenvalues    EBANDS =      -513.08031506
  atomic energy  EATOM  =      1406.67326350
  Solvation  Ediel_sol  =         0.00000000
  ---------------------------------------------------
  free energy    TOTEN  =      -101.40872472 eV

  energy without entropy =     -101.40872472  energy(sigma->0) =     -101.40872472


--------------------------------------------------------------------------------------------------------




--------------------------------------- Iteration      1(  20)  ---------------------------------------


    POTLOK:  cpu time      1.2566: real time      1.2573
    SETDIJ:  cpu time      0.0171: real time      0.0171
    EDDIAG:  cpu time      0.2991: real time      0.2992
  RMM-DIIS:  cpu time      1.4164: real time      1.4199
    ORTHCH:  cpu time      0.0081: real time      0.0081
       DOS:  cpu time      0.0001: real time      0.0001
    CHARGE:  cpu time      0.1421: real time      0.1421
    MIXING:  cpu time      0.0713: real time      0.0713
    --------------------------------------------
      LOOP:  cpu time      3.2111: real time      3.2152

 eigenvalue-minimisations  :    43
 total energy-change (2. order) :-0.1599499E-03  (-0.2072548E-05)
 number of electron      42.0000006 magnetization 
 augmentation part        1.0222680 magnetization 

 Broyden mixing:
  rms(total) = 0.24574E-03    rms(broyden)= 0.24565E-03
  rms(prec ) = 0.41574E-03
  weight for this iteration     100.00

 eigenvalues of (default mixing * dielectric matrix)
  average eigenvalue GAMMA=   2.2090
  8.7466  5.3282  2.7143  2.5925  2.1215  1.3610  1.3610  1.6106  1.3025  1.3025
  1.0407  1.0407  0.8066  0.9030  0.9030

 Free energy of the ion-electron system (eV)
  ---------------------------------------------------
  alpha Z        PSCENC =         2.15216506
  Ewald energy   TEWEN  =      2271.50176100
  -Hartree energ DENC   =     -3401.62774732
  -exchange      EXHF   =         0.00000000
  -V(xc)+E(xc)   XCENC  =       139.33101569
  PAW double counting   =      3511.35554085    -3517.72115962
  entropy T*S    EENTRO =        -0.00000000
  eigenvalues    EBANDS =      -513.07372382
  atomic energy  EATOM  =      1406.67326350
  Solvation  Ediel_sol  =         0.00000000
  ---------------------------------------------------
  free energy    TOTEN  =      -101.40888467 eV

  energy without entropy =     -101.40888467  energy(sigma->0) =     -101.40888467


--------------------------------------------------------------------------------------------------------




--------------------------------------- Iteration      1(  21)  ---------------------------------------


    POTLOK:  cpu time      1.2323: real time      1.2346
    SETDIJ:  cpu time      0.0049: real time      0.0049
    EDDIAG:  cpu time      0.3559: real time      0.3559
  RMM-DIIS:  cpu time      1.6463: real time      1.6506
    ORTHCH:  cpu time      0.0267: real time      0.0284
       DOS:  cpu time      0.0002: real time      0.0002
    CHARGE:  cpu time      0.3232: real time      0.3394
    MIXING:  cpu time      0.0932: real time      0.0933
    --------------------------------------------
      LOOP:  cpu time      3.6826: real time      3.7073

 eigenvalue-minimisations  :    39
 total energy-change (2. order) :-0.1184962E-03  (-0.7438165E-06)
 number of electron      42.0000006 magnetization 
 augmentation part        1.0222661 magnetization 

 Broyden mixing:
  rms(total) = 0.15203E-03    rms(broyden)= 0.15200E-03
  rms(prec ) = 0.23626E-03
  weight for this iteration     100.00

 eigenvalues of (default mixing * dielectric matrix)
  average eigenvalue GAMMA=   2.2661
  8.9324  5.7206  3.6645  2.4888  2.3223  1.8742  1.3788  1.3788  1.3791  1.3791
  1.0733  1.0733  0.8067  0.9558  0.9151  0.9151

 Free energy of the ion-electron system (eV)
  ---------------------------------------------------
  alpha Z        PSCENC =         2.15216506
  Ewald energy   TEWEN  =      2271.50176100
  -Hartree energ DENC   =     -3401.60146131
  -exchange      EXHF   =         0.00000000
  -V(xc)+E(xc)   XCENC  =       139.33018753
  PAW double counting   =      3511.21751739    -3517.58302444
  entropy T*S    EENTRO =        -0.00000000
  eigenvalues    EBANDS =      -513.09941189
  atomic energy  EATOM  =      1406.67326350
  Solvation  Ediel_sol  =         0.00000000
  ---------------------------------------------------
  free energy    TOTEN  =      -101.40900317 eV

  energy without entropy =     -101.40900317  energy(sigma->0) =     -101.40900317


--------------------------------------------------------------------------------------------------------




--------------------------------------- Iteration      1(  22)  ---------------------------------------


    POTLOK:  cpu time      1.3080: real time      1.3090
    SETDIJ:  cpu time      0.0177: real time      0.0177
    EDDIAG:  cpu time      0.3528: real time      0.3528
  RMM-DIIS:  cpu time      1.3228: real time      1.3229
    ORTHCH:  cpu time      0.0145: real time      0.0146
       DOS:  cpu time      0.0002: real time      0.0002
    CHARGE:  cpu time      0.2221: real time      0.2221
    MIXING:  cpu time      0.1183: real time      0.1183
    --------------------------------------------
      LOOP:  cpu time      3.3563: real time      3.3575

 eigenvalue-minimisations  :    37
 total energy-change (2. order) :-0.4347989E-04  (-0.2875803E-06)
 number of electron      42.0000006 magnetization 
 augmentation part        1.0222689 magnetization 

 Broyden mixing:
  rms(total) = 0.10451E-03    rms(broyden)= 0.10447E-03
  rms(prec ) = 0.14574E-03
  weight for this iteration     100.00

 eigenvalues of (default mixing * dielectric matrix)
  average eigenvalue GAMMA=   2.2570
  8.8986  6.1417  3.9333  2.5501  2.2999  1.9825  1.3748  1.3748  1.4927  1.2683
  1.2683  1.1288  1.1288  0.8069  0.8976  0.8976  0.9246

 Free energy of the ion-electron system (eV)
  ---------------------------------------------------
  alpha Z        PSCENC =         2.15216506
  Ewald energy   TEWEN  =      2271.50176100
  -Hartree energ DENC   =     -3401.59933775
  -exchange      EXHF   =         0.00000000
  -V(xc)+E(xc)   XCENC  =       139.33011980
  PAW double counting   =      3511.19931333    -3517.56473024
  entropy T*S    EENTRO =        -0.00000000
  eigenvalues    EBANDS =      -513.10160135
  atomic energy  EATOM  =      1406.67326350
  Solvation  Ediel_sol  =         0.00000000
  ---------------------------------------------------
  free energy    TOTEN  =      -101.40904665 eV

  energy without entropy =     -101.40904665  energy(sigma->0) =     -101.40904665


--------------------------------------------------------------------------------------------------------




--------------------------------------- Iteration      1(  23)  ---------------------------------------


    POTLOK:  cpu time      1.5910: real time      1.5911
    SETDIJ:  cpu time      0.0165: real time      0.0165
    EDDIAG:  cpu time      0.3206: real time      0.3207
  RMM-DIIS:  cpu time      0.9113: real time      0.9113
    ORTHCH:  cpu time      0.0166: real time      0.0166
       DOS:  cpu time      0.0002: real time      0.0002
    CHARGE:  cpu time      0.1887: real time      0.1887
    MIXING:  cpu time      0.1437: real time      0.1437
    --------------------------------------------
      LOOP:  cpu time      3.1885: real time      3.1888

 eigenvalue-minimisations  :    27
 total energy-change (2. order) :-0.1500947E-04  (-0.7162101E-07)
 number of electron      42.0000006 magnetization 
 augmentation part        1.0222646 magnetization 

 Broyden mixing:
  rms(total) = 0.43773E-04    rms(broyden)= 0.43757E-04
  rms(prec ) = 0.71863E-04
  weight for this iteration     100.00

 eigenvalues of (default mixing * dielectric matrix)
  average eigenvalue GAMMA=   2.3396
  9.0983  6.7365  4.5692  2.7252  2.7252  1.9981  1.9981  1.3795  1.3795  1.3213
  1.3213  1.2352  1.0329  1.0329  0.8068  0.9115  0.9115  0.9295

 Free energy of the ion-electron system (eV)
  ---------------------------------------------------
  alpha Z        PSCENC =         2.15216506
  Ewald energy   TEWEN  =      2271.50176100
  -Hartree energ DENC   =     -3401.60620404
  -exchange      EXHF   =         0.00000000
  -V(xc)+E(xc)   XCENC  =       139.33034292
  PAW double counting   =      3511.20416213    -3517.56969580
  entropy T*S    EENTRO =        -0.00000000
  eigenvalues    EBANDS =      -513.09485643
  atomic energy  EATOM  =      1406.67326350
  Solvation  Ediel_sol  =         0.00000000
  ---------------------------------------------------
  free energy    TOTEN  =      -101.40906166 eV

  energy without entropy =     -101.40906166  energy(sigma->0) =     -101.40906166


--------------------------------------------------------------------------------------------------------




--------------------------------------- Iteration      1(  24)  ---------------------------------------


    POTLOK:  cpu time      1.4971: real time      1.4987
    SETDIJ:  cpu time      0.0132: real time      0.0132
    EDDIAG:  cpu time      0.2572: real time      0.2573
  RMM-DIIS:  cpu time      0.7738: real time      0.7738
    ORTHCH:  cpu time      0.0106: real time      0.0106
       DOS:  cpu time      0.0001: real time      0.0001
    CHARGE:  cpu time      0.0972: real time      0.0973
    MIXING:  cpu time      0.0413: real time      0.0413
    --------------------------------------------
      LOOP:  cpu time      2.6906: real time      2.6923

 eigenvalue-minimisations  :    26
 total energy-change (2. order) :-0.1060837E-04  (-0.4656164E-07)
 number of electron      42.0000006 magnetization 
 augmentation part        1.0222618 magnetization 

 Broyden mixing:
  rms(total) = 0.46572E-04    rms(broyden)= 0.46568E-04
  rms(prec ) = 0.59467E-04
  weight for this iteration     100.00

 eigenvalues of (default mixing * dielectric matrix)
  average eigenvalue GAMMA=   2.3176
  9.1988  6.9273  4.8021  3.1286  2.4840  2.2386  1.3780  1.3780  1.6762  1.6762
  1.2689  1.2689  1.0797  1.0797  0.8068  0.8983  0.8983  0.9227  0.9227

 Free energy of the ion-electron system (eV)
  ---------------------------------------------------
  alpha Z        PSCENC =         2.15216506
  Ewald energy   TEWEN  =      2271.50176100
  -Hartree energ DENC   =     -3401.60909565
  -exchange      EXHF   =         0.00000000
[...]


--------------------------------------------------------------------------------------------------------


    POTLOK:  cpu time      1.1929: real time      1.5913


--------------------------------------------------------------------------------------------------------


 NEB: the previous image is higher in energy: T
 NEB: the next image is higher in energy    : T
 NEB: image is at an extrema
 NEB: diff energy (min, max):     0.006892    0.392809

 NEB: Tangent
 ----------------------------------------------
      0.07146      0.01336     -0.07782
      0.02552     -0.02900     -0.06075
      0.04903     -0.03386     -0.13887
      0.14551      0.11116     -0.24319
     -0.15367     -0.02073      0.42305
     -0.08039      0.01843      0.32075
     -0.03238     -0.05768      0.25927
      0.10841     -0.04696     -0.11220
      0.09691      0.11153      0.02271
      0.20556      0.11067     -0.26689
      0.02498     -0.03032     -0.10042
      0.03809     -0.01751      0.04601
      0.05838     -0.03702     -0.21944
     -0.09917      0.03070      0.13795
     -0.15312     -0.02642      0.35048
     -0.00740      0.03507      0.06674
      0.02146     -0.12710      0.20364

 NEB: forces: par spring, perp REAL, dneb     0.006542    0.098357    0.000000
 NEB: distance to prev, next image, angle between     1.186484    1.187792  106.464127
 NEB: projections on to tangent (spring, REAL)     0.006542   -0.103616

 stress matrix after NEB project (eV)
     -1.77596      0.02656     -0.12387
      0.02656     -1.72223     -0.03204
     -0.12387     -0.03204     -1.43934
  FORCES: max atom, RMS     0.051476    0.023908
  FORCE total and by dimension    0.098575    0.050160
  Stress total and by dimension    2.868091    1.775957
 Quasi-Newton relaxation of ions (Broydens 2nd method)
  g(Force)  = 0.418E-03   g(Stress)= 0.000E+00

 retain information from N=  1 steps
 eigenvalues of (default step * inverse Hessian matrix)
  average eigenvalue of G=   1.6672
 eigenvalue spectrum of G is  1.6672


--------------------------------------------------------------------------------------------------------


    WAVPRE:  cpu time      1.6982: real time      2.1187
    FEWALD:  cpu time      0.0510: real time      0.0511
    ORTHCH:  cpu time      0.1936: real time      0.1936
     LOOP+:  cpu time     15.9309: real time     22.2311


--------------------------------------- Iteration    108(   1)  ---------------------------------------


    POTLOK:  cpu time      2.0113: real time      3.1900
    SETDIJ:  cpu time      0.0292: real time      0.0306
     EDDAV:  cpu time      2.2958: real time      2.4850
       DOS:  cpu time      0.0001: real time      0.0001
    CHARGE:  cpu time      0.1718: real time      0.3659
    MIXING:  cpu time      0.0778: real time      0.1220
    --------------------------------------------
      LOOP:  cpu time      4.5860: real time      6.1936

 eigenvalue-minimisations  :    66
 total energy-change (2. order) :-0.2803942E-03  (-0.6598388E-03)
 number of electron      41.9999998 magnetization 
 augmentation part        1.0159710 magnetization 

 Broyden mixing:
  rms(total) = 0.17986E-02    rms(broyden)= 0.17922E-02
  rms(prec ) = 0.19263E-02
  weight for this iteration     100.00

 Free energy of the ion-electron system (eV)
  ---------------------------------------------------
  alpha Z        PSCENC =         2.15216506
  Ewald energy   TEWEN  =      2146.02092301
  -Hartree energ DENC   =     -3278.04146233
  -exchange      EXHF   =         0.00000000
  -V(xc)+E(xc)   XCENC  =       138.85158138
  PAW double counting   =      3469.07315237    -3475.41588792
  entropy T*S    EENTRO =        -0.00000000
  eigenvalues    EBANDS =      -510.96649005
  atomic energy  EATOM  =      1406.67326350
  Solvation  Ediel_sol  =         0.00000000
  ---------------------------------------------------
  free energy    TOTEN  =      -101.65275498 eV

  energy without entropy =     -101.65275498  energy(sigma->0) =     -101.65275498


--------------------------------------------------------------------------------------------------------




--------------------------------------- Iteration    108(   2)  ---------------------------------------


    POTLOK:  cpu time      1.9976: real time      2.5072
    SETDIJ:  cpu time      0.0048: real time      0.0186
    EDDIAG:  cpu time      0.1419: real time      0.2908
  RMM-DIIS:  cpu time      0.6206: real time      1.0594
    ORTHCH:  cpu time      0.0077: real time      0.0078
       DOS:  cpu time      0.0001: real time      0.0001
    --------------------------------------------
      LOOP:  cpu time      2.7726: real time      3.8838

 eigenvalue-minimisations  :    53
 total energy-change (2. order) :-0.4550972E-05  (-0.8108382E-05)
 number of electron      41.9999998 magnetization 
 augmentation part        1.0159710 magnetization 

 Free energy of the ion-electron system (eV)
  ---------------------------------------------------
  alpha Z        PSCENC =         2.15216506
  Ewald energy   TEWEN  =      2146.02092301
  -Hartree energ DENC   =     -3278.04232581
  -exchange      EXHF   =         0.00000000
  -V(xc)+E(xc)   XCENC  =       138.85177584
  PAW double counting   =      3469.13390610    -3475.47666001
  entropy T*S    EENTRO =        -0.00000000
  eigenvalues    EBANDS =      -510.96580723
  atomic energy  EATOM  =      1406.67326350
  Solvation  Ediel_sol  =         0.00000000
  ---------------------------------------------------
  free energy    TOTEN  =      -101.65275953 eV

  energy without entropy =     -101.65275953  energy(sigma->0) =     -101.65275953


--------------------------------------------------------------------------------------------------------




 average (electrostatic) potential at core
  the test charge radii are     0.6991  0.5201  0.7089
  (the norm of the test charge is              1.0000)
       1 -58.9733       2 -58.9438       3 -58.7187       4 -58.7717       5 -59.4033
       6 -59.8174       7 -59.8479       8 -42.1004       9 -42.1596      10 -42.1705
      11 -42.0688      12 -42.0756      13 -42.0800      14 -42.5692      15 -42.6127
      16 -42.7705      17 -73.0962
 
 
 
 E-fermi :  -5.6424     XC(G=0):  -0.6539     alpha+bet : -0.2838

 Fermi energy:        -5.6424476592

 k-point     1 :       0.0000    0.0000    0.0000
  band No.  band energies     occupation 
      1     -22.3533      2.00000
      2     -20.1012      2.00000
      3     -19.8813      2.00000
      4     -18.0580      2.00000
      5     -15.9837      2.00000
      6     -15.3995      2.00000
      7     -13.0012      2.00000
      8     -12.8905      2.00000
      9     -12.1443      2.00000
     10     -11.4314      2.00000
     11     -10.8098      2.00000
     12     -10.1738      2.00000
     13      -9.7429      2.00000
     14      -9.2044      2.00000
     15      -8.7110      2.00000
     16      -8.4974      2.00000
     17      -8.3216      2.00000
     18      -8.1363      2.00000
     19      -7.9597      2.00000
     20      -6.7995      2.00000
     21      -5.8821      2.00000
     22      -2.3611      0.00000
     23      -2.2049      0.00000
     24      -0.6832      0.00000
     25      -0.2307      0.00000
     26      -0.0855      0.00000
     27       0.0724      0.00000
     28       0.2963      0.00000
     29       0.4254      0.00000
     30       0.4927      0.00000


--------------------------------------------------------------------------------------------------------


 soft charge-density along one line, spin component           1
         0         1         2         3         4         5         6         7         8         9
 total charge-density along one line
 
 pseudopotential strength for first ion, spin component:           1
 10.264  13.650   0.001  -0.000  -0.000  -0.001   0.000  -0.001
 13.650  18.153   0.001  -0.000  -0.000  -0.002   0.001  -0.001
  0.001   0.001  -4.391  -0.000   0.003   8.589   0.000  -0.004
 -0.000  -0.000  -0.000  -4.385   0.000   0.000   8.582  -0.000
 -0.000  -0.000   0.003   0.000  -4.391  -0.004  -0.000   8.589
 -0.001  -0.002   8.589   0.000  -0.004 -18.942  -0.000   0.006
  0.000   0.001   0.000   8.582  -0.000  -0.000 -18.938   0.000
 -0.001  -0.001  -0.004  -0.000   8.589   0.006   0.000 -18.940
 total augmentation occupancy for first ion, spin component:           1
  7.862  -3.411  -0.094  -0.040   0.293  -0.010  -0.006   0.049
 -3.411   1.521   0.039   0.025  -0.176   0.003   0.003  -0.028
 -0.094   0.039   1.776   0.026  -0.103   0.166   0.004  -0.016
 -0.040   0.025   0.026   1.159  -0.023   0.004   0.073  -0.003
  0.293  -0.176  -0.103  -0.023   1.831  -0.016  -0.003   0.165
 -0.010   0.003   0.166   0.004  -0.016   0.016   0.000  -0.002
 -0.006   0.003   0.004   0.073  -0.003   0.000   0.005  -0.000
  0.049  -0.028  -0.016  -0.003   0.165  -0.002  -0.000   0.016


------------------------ aborting loop because EDIFF is reached ----------------------------------------


    CHARGE:  cpu time      0.1986: real time      0.3950
    FORLOC:  cpu time      0.2584: real time      0.2667
    FORNL :  cpu time      0.3089: real time      0.3095
    STRESS:  cpu time      1.2850: real time      1.2888
    FORCOR:  cpu time      1.2924: real time      1.6200
    FORHAR:  cpu time      0.4748: real time      0.5929
    MIXING:  cpu time      0.0331: real time      0.0332
    OFIELD:  cpu time      0.0001: real time      0.0001

 ---------------------------------------------------------------------------------------------

         DFTD3 V3.0 Rev 1        
 Edisp (eV)   -0.21858

 E6    (eV) :    -0.0991
 E8    (eV) :    -0.1195
 % E8        : 54.66
    FORVDW:  cpu time      0.0077: real time      0.0077

  FORCE on cell =-STRESS in cart. coord.  units (eV):
  Direction    XX          YY          ZZ          XY          YZ          ZX
  --------------------------------------------------------------------------------------
  Alpha Z     2.15217     2.15217     2.15217
  Ewald     905.11962  1080.46349   160.43665   379.43680   -19.62883  -394.22124
  Hartree  1107.44635  1261.52319   909.07324   251.45401   -41.19658  -369.58643
  E(xc)    -150.87118  -151.09505  -154.60785     0.63941     0.14728     0.06590
  Local   -2386.06592 -2728.08765 -1526.86691  -616.57210    64.04030   767.38256
  n-local   -62.66241   -59.92511   -54.98709    -1.73950    -0.31861    -0.40969
  augment    -0.72587    -0.69933    -0.41502     0.00946    -0.00411    -0.00493
  Kinetic   583.87406   593.98129   663.94024   -13.18606    -3.08717    -3.45440
  Fock        0.00000     0.00000     0.00000     0.00000     0.00000     0.00000
  vdW        -0.04257    -0.03430    -0.16851    -0.01429     0.01409     0.08572
  -------------------------------------------------------------------------------------
  Total      -1.77576    -1.72132    -1.44309     0.02772    -0.03363    -0.14252
  in kB      -0.77865    -0.75478    -0.63278     0.01216    -0.01474    -0.06249
  external pressure =       -0.72 kB  Pullay stress =        0.00 kB


 VOLUME and BASIS-vectors are now :
 -----------------------------------------------------------------------------
  energy-cutoff  :      400.00
  volume of cell :     3653.87
      direct lattice vectors                 reciprocal lattice vectors
    15.402250290  0.000000000  0.000000000     0.064925578  0.000000000  0.000000000
     0.000000000 15.402250290  0.000000000     0.000000000  0.064925578  0.000000000
     0.000000000  0.000000000 15.402250290     0.000000000  0.000000000  0.064925578

  length of vectors
    15.402250290 15.402250290 15.402250290     0.064925578  0.064925578  0.064925578


 FORCES acting on ions
    electron-ion (+dipol)            ewald-force                    non-local-force                 convergence-correction
 -----------------------------------------------------------------------------------------------
   0.126E+03 0.703E+02 -.531E+02   -.127E+03 -.707E+02 0.533E+02   0.266E+00 0.402E+00 -.152E+00   -.141E-02 -.103E-03 -.437E-02
   0.135E+03 -.489E+02 -.582E+02   -.135E+03 0.494E+02 0.585E+02   0.289E+00 -.499E+00 -.215E+00   -.477E-03 -.685E-03 -.392E-02
   -.474E+02 -.139E+03 -.653E+02   0.481E+02 0.139E+03 0.654E+02   -.715E+00 -.546E+00 -.435E-01   0.537E-03 -.137E-02 -.100E-01
   -.719E+02 0.145E+03 -.532E+02   0.725E+02 -.145E+03 0.533E+02   -.620E+00 0.371E+00 -.621E-01   -.226E-02 0.637E-03 -.102E-01
   -.122E+02 0.148E+03 0.858E+02   0.121E+02 -.150E+03 -.860E+02   0.125E+00 0.190E+01 0.774E-01   0.555E-03 -.711E-03 0.541E-02
   0.504E+02 -.501E+02 0.916E+02   -.548E+02 0.482E+02 -.923E+02   0.438E+01 0.196E+01 0.613E+00   -.102E-02 0.288E-03 0.904E-02
   -.391E+00 -.758E+01 0.565E+02   -.127E+01 0.599E+01 -.568E+02   0.167E+01 0.158E+01 0.263E+00   -.245E-02 0.404E-02 -.546E-02
   0.695E+02 0.393E+02 -.712E+01   -.745E+02 -.420E+02 0.712E+01   0.499E+01 0.273E+01 0.100E-01   -.122E-03 0.284E-03 -.264E-03
   -.632E+02 0.460E+01 -.199E+02   0.685E+02 -.232E+01 0.200E+02   -.523E+01 -.230E+01 -.108E+00   -.246E-03 0.418E-03 -.196E-02
   -.184E+01 0.760E+02 -.546E+01   0.156E+01 -.817E+02 0.515E+01   0.262E+00 0.572E+01 0.357E+00   -.669E-03 0.297E-04 -.176E-02
   0.731E+02 -.313E+02 -.103E+02   -.784E+02 0.336E+02 0.105E+02   0.522E+01 -.226E+01 -.217E+00   -.763E-04 0.591E-04 -.140E-03
   -.593E+02 -.494E+01 -.226E+02   0.647E+02 0.319E+01 0.225E+02   -.545E+01 0.176E+01 0.148E+00   -.252E-03 -.480E-03 -.196E-02
   0.807E+01 -.749E+02 -.109E+02   -.884E+01 0.806E+02 0.109E+02   0.756E+00 -.570E+01 0.785E-01   0.262E-03 0.264E-04 -.173E-02
   0.472E+02 0.483E+02 0.278E+02   -.521E+02 -.515E+02 -.284E+02   0.493E+01 0.313E+01 0.501E+00   0.171E-03 -.359E-03 0.159E-02
   -.555E+02 0.500E+02 0.102E+02   0.605E+02 -.529E+02 -.980E+01   -.500E+01 0.292E+01 -.465E+00   0.104E-03 0.105E-03 -.235E-03
   0.594E+02 -.374E+02 0.276E+02   -.645E+02 0.403E+02 -.280E+02   0.507E+01 -.283E+01 0.322E+00   -.336E-03 -.126E-03 0.249E-02
   -.235E+03 -.172E+03 0.966E+01   0.268E+03 0.195E+03 -.538E+01   -.324E+02 -.237E+02 -.428E+01   -.463E-02 0.897E-02 -.151E-01
 -----------------------------------------------------------------------------------------------
   0.214E+02 0.153E+02 0.321E+01   0.114E-12 0.114E-12 0.178E-13   -.214E+02 -.153E+02 -.317E+01   -.123E-01 0.110E-01 -.385E-01
 
 
 POSITION                                       TOTAL-FORCE (eV/Angst)
 -----------------------------------------------------------------------------------
      5.18945      6.74827      8.93188        -0.000552     -0.003187      0.010528
      5.12198      8.20680      8.96836         0.000156      0.001879      0.007880
      6.16531      9.05618      8.91467        -0.007113      0.006954      0.030841
      6.30696      6.00014      8.85928        -0.006710     -0.013079      0.042759
      7.11824      6.78433      6.07524         0.011758      0.004531     -0.051406
      7.08027      8.12805      6.09043         0.010541     -0.000200     -0.049255
      8.24254      8.93655      6.23361         0.005809      0.000543     -0.019326
      4.22419      6.23149      8.92791        -0.002115      0.001082      0.005685
      7.30499      6.44214      8.87896        -0.000898     -0.012701      0.022270
      6.25617      4.91306      8.79056        -0.011995     -0.013132      0.048968
      4.11373      8.63179      9.00776        -0.001699     -0.003673      0.001942
      7.20049      8.71102      8.88582        -0.002382      0.013795      0.020763
      6.01758     10.13641      8.90038        -0.015781      0.006927      0.043132
      6.20276      6.20452      5.97366         0.002922      0.003785     -0.043386
      8.05785      6.23741      6.16356         0.004377     -0.000207     -0.016117
      6.13298      8.66653      6.02107         0.007376      0.005224     -0.055213
      9.18354      9.62205      6.35916         0.006305      0.001461     -0.000066
 -----------------------------------------------------------------------------------
    total drift:                               -0.003147     -0.005044     -0.001261


--------------------------------------------------------------------------------------------------------



  FREE ENERGIE OF THE ION-ELECTRON SYSTEM (eV)
  ---------------------------------------------------
  free  energy   TOTEN  =      -101.87134342 eV

  energy  without entropy=     -101.87134342  energy(sigma->0) =     -101.87134342
 
 d Force = 0.2434911E-03[ 0.236E-03, 0.251E-03]  d Energy = 0.2454799E-03-0.199E-05
 d Force = 0.1384289E+00[ 0.139E+00, 0.138E+00]  d Ewald  = 0.1384289E+00 0.482E-08


--------------------------------------------------------------------------------------------------------


    POTLOK:  cpu time      1.1966: real time      1.6273


--------------------------------------------------------------------------------------------------------


 NEB: the previous image is higher in energy: T
 NEB: the next image is higher in energy    : T
 NEB: image is at an extrema
 NEB: diff energy (min, max):     0.006651    0.392964

 NEB: Tangent
 ----------------------------------------------
      0.07139      0.01341     -0.07790
      0.02546     -0.02889     -0.06067
      0.04890     -0.03375     -0.13907
      0.14534      0.11124     -0.24352
     -0.15369     -0.02080      0.42278
     -0.08047      0.01825      0.32072
     -0.03250     -0.05778      0.25905
      0.10836     -0.04692     -0.11205
      0.09677      0.11177      0.02177
      0.20554      0.11081     -0.26782
      0.02495     -0.03022     -0.09980
      0.03797     -0.01753      0.04511
      0.05831     -0.03690     -0.21976
     -0.09929      0.03051      0.13853
     -0.15314     -0.02656      0.35013
     -0.00757      0.03486      0.06763
      0.02135     -0.12719      0.20304

 NEB: forces: par spring, perp REAL, dneb     0.009081    0.092224    0.000000
 NEB: distance to prev, next image, angle between     1.186275    1.188091  106.531361
 NEB: projections on to tangent (spring, REAL)     0.009081   -0.109970

 stress matrix after NEB project (eV)
     -1.77576      0.02772     -0.14252
      0.02772     -1.72132     -0.03363
     -0.14252     -0.03363     -1.44309
  FORCES: max atom, RMS     0.048518    0.022476
  FORCE total and by dimension    0.092670    0.047162
  Stress total and by dimension    2.871101    1.775763
 Quasi-Newton relaxation of ions (Broydens 2nd method)
  g(Force)  = 0.386E-03   g(Stress)= 0.000E+00

 retain information from N=  2 steps
 eigenvalues of (default step * inverse Hessian matrix)
  average eigenvalue of G=   4.3533
 eigenvalue spectrum of G is  4.3533  4.3533


--------------------------------------------------------------------------------------------------------


  
 reached required accuracy - stopping structural energy minimisation
     LOOP+:  cpu time     13.7014: real time     18.2378
    4ORBIT:  cpu time      0.0000: real time      0.0000

 total amount of memory used by VASP MPI-rank0   277942. kBytes
=======================================================================

   base      :      30000. kBytes
   nonl-proj :      15437. kBytes
   fftplans  :      71598. kBytes
   grid      :     152883. kBytes
   one-center:         26. kBytes
   wavefun   :       7998. kBytes
 
  
  
 General timing and accounting informations for this job:
 ========================================================
  
                  Total CPU time used (sec):     2258.304
                            User time (sec):     2067.207
                          System time (sec):      191.097
                         Elapsed time (sec):     3151.802
  
                   Maximum memory used (kb):     1155848.
                   Average memory used (kb):          N/A
  
                          Minor page faults:     15408206
                          Major page faults:          263
                 Voluntary context switches:         1597
