 vasp.6.3.2 27Jun22 (build Oct 05 2023 17:59:42) gamma-only                     
  
 POSCAR found type information on POSCAR C H N 
 02/POSCAR found :  3 types and      17 ions
 scaLAPACK will be used
 -----------------------------------------------------------------------------
|                                                                             |
|               ----> ADVICE to this user running VASP <----                  |
|                                                                             |
|     You have a (more or less) 'large supercell' and for larger cells it     |
|     might be more efficient to use real-space projection operators.         |
|     Therefore, try LREAL= Auto in the INCAR file.                           |
|     Mind: For very accurate calculation, you might also keep the            |
|     reciprocal projection scheme (i.e. LREAL=.FALSE.).                      |
|                                                                             |
 -----------------------------------------------------------------------------

 LDA part: xc-table for Pade appr. of Perdew
 POSCAR found type information on POSCAR C H N 
 00/POSCAR found :  3 types and      17 ions
 POSCAR found type information on POSCAR C H N 
 10/POSCAR found :  3 types and      17 ions
 Jacobian:    24.6978413598026     
 POSCAR found type information on POSCAR C H N 
 00/POSCAR found :  3 types and      17 ions
 POSCAR found type information on POSCAR C H N 
 10/POSCAR found :  3 types and      17 ions
 POSCAR, INCAR and KPOINTS ok, starting setup
 FFT: planning ... GRIDC
 FFT: planning ... GRID_SOFT
 FFT: planning ... GRID
 WAVECAR not read
 entering main loop
       N       E                     dE             d eps       ncg     rms          rms(c)
DAV:   1     0.331923881324E+03    0.33192E+03   -0.10147E+04    76   0.668E+02
DAV:   2     0.748163324102E+02   -0.25711E+03   -0.24418E+03    88   0.137E+02
DAV:   3    -0.907628471172E+02   -0.16558E+03   -0.16494E+03    80   0.108E+02
DAV:   4    -0.112178572789E+03   -0.21416E+02   -0.21373E+02    88   0.568E+01
DAV:   5    -0.112499389695E+03   -0.32082E+00   -0.31989E+00    80   0.849E+00    0.174E+01
RMM:   6    -0.103689726961E+03    0.88097E+01   -0.12588E+01    60   0.144E+01    0.939E+00
RMM:   7    -0.101636290867E+03    0.20534E+01   -0.11978E+01    60   0.137E+01    0.395E+00
RMM:   8    -0.101473022490E+03    0.16327E+00   -0.70281E-01    60   0.438E+00    0.237E+00
RMM:   9    -0.101381220221E+03    0.91802E-01   -0.46956E-01    60   0.298E+00    0.648E-01
RMM:  10    -0.101375542829E+03    0.56774E-02   -0.71971E-02    64   0.122E+00    0.309E-01
RMM:  11    -0.101382207419E+03   -0.66646E-02   -0.87560E-02    60   0.111E+00    0.343E-01
RMM:  12    -0.101380212185E+03    0.19952E-02   -0.80494E-03    61   0.481E-01    0.236E-01
RMM:  13    -0.101386828701E+03   -0.66165E-02   -0.13305E-02    60   0.450E-01    0.652E-02
RMM:  14    -0.101391337898E+03   -0.45092E-02   -0.36788E-03    62   0.246E-01    0.711E-02
RMM:  15    -0.101401516459E+03   -0.10179E-01   -0.17673E-03    60   0.158E-01    0.283E-02
RMM:  16    -0.101403998245E+03   -0.24818E-02   -0.82332E-04    60   0.901E-02    0.264E-02
RMM:  17    -0.101407447839E+03   -0.34496E-02   -0.68269E-04    60   0.866E-02    0.152E-02
RMM:  18    -0.101408275474E+03   -0.82764E-03   -0.31358E-04    58   0.486E-02    0.125E-02
RMM:  19    -0.101408724720E+03   -0.44925E-03   -0.78482E-05    52   0.281E-02    0.324E-03
RMM:  20    -0.101408884670E+03   -0.15995E-03   -0.20725E-05    43   0.149E-02    0.246E-03
RMM:  21    -0.101409003166E+03   -0.11850E-03   -0.74382E-06    39   0.951E-03    0.152E-03
RMM:  22    -0.101409046646E+03   -0.43480E-04   -0.28758E-06    37   0.673E-03    0.105E-03
RMM:  23    -0.101409061656E+03   -0.15009E-04   -0.71621E-07    27   0.403E-03    0.438E-04
RMM:  24    -0.101409072264E+03   -0.10608E-04   -0.46562E-07    26   0.386E-03    0.466E-04
RMM:  25    -0.101409074639E+03   -0.23751E-05   -0.66931E-08    19   0.298E-03
   1 F= -.10164038E+03 E0= -.10164038E+03  d E =-.101640E+03
 BRION: g(F)=  0.400E+00 g(S)=  0.000E+00
 bond charge predicted
       N       E                     dE             d eps       ncg     rms          rms(c)
DAV:   1    -0.101418685322E+03   -0.96131E-02   -0.84191E-01    72   0.512E+00    0.185E-01
RMM:   2    -0.101419551023E+03   -0.86570E-03   -0.13383E-02    60   0.598E-01    0.117E-01
RMM:   3    -0.101419612481E+03   -0.61458E-04   -0.21665E-03    61   0.269E-01    0.460E-02
RMM:   4    -0.101419677504E+03   -0.65024E-04   -0.63835E-04    65   0.133E-01    0.235E-02
RMM:   5    -0.101419690595E+03   -0.13091E-04   -0.10795E-04    59   0.524E-02    0.119E-02
RMM:   6    -0.101419695020E+03   -0.44244E-05   -0.15454E-05    41   0.225E-02
   2 F= -.10165083E+03 E0= -.10165083E+03  d E =-.104462E-01
 BRION: g(F)=  0.319E+00 g(S)=  0.000E+00 retain N=  1 mean eig= 1.51
 eig:   1.513
 bond charge predicted
       N       E                     dE             d eps       ncg     rms          rms(c)
DAV:   1    -0.101431462402E+03   -0.11772E-01   -0.17657E+00    66   0.735E+00    0.272E-01
RMM:   2    -0.101432521902E+03   -0.10595E-02   -0.21242E-02    60   0.807E-01    0.166E-01
RMM:   3    -0.101432566287E+03   -0.44384E-04   -0.36329E-03    60   0.357E-01    0.574E-02
RMM:   4    -0.101432666272E+03   -0.99985E-04   -0.83834E-04    63   0.166E-01    0.338E-02
RMM:   5    -0.101432684754E+03   -0.18482E-04   -0.13499E-04    62   0.672E-02    0.200E-02
RMM:   6    -0.101432696202E+03   -0.11448E-04   -0.29340E-05    45   0.317E-02    0.279E-03
RMM:   7    -0.101432699614E+03   -0.34118E-05   -0.86231E-06    40   0.161E-02
   3 F= -.10166355E+03 E0= -.10166355E+03  d E =-.127275E-01
 BRION: g(F)=  0.289E+00 g(S)=  0.000E+00 retain N=  2 mean eig= 1.51
 eig:   1.511  1.511
 bond charge predicted
       N       E                     dE             d eps       ncg     rms          rms(c)
DAV:   1    -0.101439579660E+03   -0.68835E-02   -0.71238E-01    72   0.467E+00    0.173E-01
RMM:   2    -0.101440003780E+03   -0.42412E-03   -0.87539E-03    60   0.515E-01    0.106E-01
RMM:   3    -0.101440033978E+03   -0.30198E-04   -0.14682E-03    60   0.227E-01    0.413E-02
RMM:   4    -0.101440081622E+03   -0.47644E-04   -0.37106E-04    63   0.108E-01    0.214E-02
RMM:   5    -0.101440091689E+03   -0.10067E-04   -0.52812E-05    50   0.434E-02    0.831E-03
RMM:   6    -0.101440097188E+03   -0.54991E-05   -0.12478E-05    40   0.211E-02
   4 F= -.10167075E+03 E0= -.10167075E+03  d E =-.719223E-02
 BRION: g(F)=  0.271E+00 g(S)=  0.000E+00 retain N=  3 mean eig= 1.67
 eig:   1.936  1.936  1.130
 bond charge predicted
       N       E                     dE             d eps       ncg     rms          rms(c)
DAV:   1    -0.101445930877E+03   -0.58392E-02   -0.55229E-01    60   0.410E+00    0.150E-01
RMM:   2    -0.101446261158E+03   -0.33028E-03   -0.66414E-03    60   0.450E-01    0.931E-02
RMM:   3    -0.101446301589E+03   -0.40431E-04   -0.11499E-03    60   0.201E-01    0.280E-02
RMM:   4    -0.101446332926E+03   -0.31337E-04   -0.25129E-04    63   0.912E-02    0.157E-02
RMM:   5    -0.101446338918E+03   -0.59921E-05   -0.40713E-05    50   0.374E-02
   5 F= -.10167680E+03 E0= -.10167680E+03  d E =-.604995E-02
 BRION: g(F)=  0.251E+00 g(S)=  0.000E+00 retain N=  4 mean eig= 2.61
 eig:   3.423  3.423  2.476  1.116
 bond charge predicted
       N       E                     dE             d eps       ncg     rms          rms(c)
DAV:   1    -0.101458695805E+03   -0.12363E-01   -0.34526E+00    60   0.102E+01    0.387E-01
RMM:   2    -0.101461010462E+03   -0.23147E-02   -0.42670E-02    60   0.114E+00    0.234E-01
RMM:   3    -0.101461163940E+03   -0.15348E-03   -0.71106E-03    60   0.502E-01    0.834E-02
RMM:   4    -0.101461358253E+03   -0.19431E-03   -0.16647E-03    63   0.233E-01    0.415E-02
RMM:   5    -0.101461389935E+03   -0.31682E-04   -0.26938E-04    66   0.945E-02    0.173E-02
RMM:   6    -0.101461402452E+03   -0.12517E-04   -0.56049E-05    50   0.427E-02    0.553E-03
RMM:   7    -0.101461410239E+03   -0.77863E-05   -0.13276E-05    40   0.191E-02
   6 F= -.10169131E+03 E0= -.10169131E+03  d E =-.145109E-01
 BRION: g(F)=  0.182E+00 g(S)=  0.000E+00 retain N=  3 mean eig= 2.85
 eig:   5.704  1.420  1.420
 bond charge predicted
       N       E                     dE             d eps       ncg     rms          rms(c)
DAV:   1    -0.101476464592E+03   -0.15062E-01   -0.11204E+01    60   0.185E+01    0.735E-01
RMM:   2    -0.101484741616E+03   -0.82770E-02   -0.14317E-01    60   0.209E+00    0.424E-01
RMM:   3    -0.101485067737E+03   -0.32612E-03   -0.22492E-02    60   0.902E-01    0.185E-01
RMM:   4    -0.101485601882E+03   -0.53415E-03   -0.54259E-03    61   0.432E-01    0.777E-02
RMM:   5    -0.101485741028E+03   -0.13915E-03   -0.11659E-03    68   0.179E-01    0.244E-02
RMM:   6    -0.101485773535E+03   -0.32508E-04   -0.17726E-04    59   0.762E-02    0.917E-03
RMM:   7    -0.101485789320E+03   -0.15785E-04   -0.38794E-05    44   0.312E-02    0.708E-03
RMM:   8    -0.101485802508E+03   -0.13188E-04   -0.59841E-06    39   0.129E-02    0.252E-03
RMM:   9    -0.101485811817E+03   -0.93094E-05   -0.25718E-06    39   0.807E-03
   7 F= -.10171457E+03 E0= -.10171457E+03  d E =-.232678E-01
 BRION: g(F)=  0.122E+00 g(S)=  0.000E+00 retain N=  4 mean eig= 4.69
 eig:   7.853  7.853  1.531  1.531
 bond charge predicted
       N       E                     dE             d eps       ncg     rms          rms(c)
DAV:   1    -0.101493716861E+03   -0.79144E-02   -0.17707E+00    60   0.734E+00    0.277E-01
RMM:   2    -0.101494903357E+03   -0.11865E-02   -0.21996E-02    60   0.819E-01    0.170E-01
RMM:   3    -0.101495013416E+03   -0.11006E-03   -0.37115E-03    60   0.362E-01    0.525E-02
RMM:   4    -0.101495110650E+03   -0.97234E-04   -0.81903E-04    63   0.165E-01    0.272E-02
RMM:   5    -0.101495127588E+03   -0.16938E-04   -0.13806E-04    61   0.675E-02    0.123E-02
RMM:   6    -0.101495136088E+03   -0.85004E-05   -0.28248E-05    43   0.306E-02
   8 F= -.10172339E+03 E0= -.10172339E+03  d E =-.881399E-02
 BRION: g(F)=  0.892E-01 g(S)=  0.000E+00 retain N=  2 mean eig= 4.24
 eig:   4.240  4.240
 bond charge predicted
       N       E                     dE             d eps       ncg     rms          rms(c)
DAV:   1    -0.101504267773E+03   -0.91402E-02   -0.32138E+00    60   0.989E+00    0.377E-01
RMM:   2    -0.101506511934E+03   -0.22442E-02   -0.40368E-02    60   0.111E+00    0.230E-01
RMM:   3    -0.101506672856E+03   -0.16092E-03   -0.66715E-03    60   0.487E-01    0.785E-02
RMM:   4    -0.101506851231E+03   -0.17838E-03   -0.15264E-03    63   0.225E-01    0.389E-02
RMM:   5    -0.101506881847E+03   -0.30616E-04   -0.25405E-04    66   0.912E-02    0.154E-02
RMM:   6    -0.101506894424E+03   -0.12577E-04   -0.52085E-05    50   0.410E-02    0.519E-03
RMM:   7    -0.101506903109E+03   -0.86842E-05   -0.11649E-05    40   0.180E-02
   9 F= -.10173443E+03 E0= -.10173443E+03  d E =-.110441E-01
 BRION: g(F)=  0.700E-01 g(S)=  0.000E+00 retain N=  2 mean eig= 3.16
 eig:   3.165  3.165
 bond charge predicted
       N       E                     dE             d eps       ncg     rms          rms(c)
DAV:   1    -0.101513015042E+03   -0.61206E-02   -0.91918E-01    60   0.530E+00    0.202E-01
RMM:   2    -0.101513643519E+03   -0.62848E-03   -0.11718E-02    60   0.598E-01    0.125E-01
RMM:   3    -0.101513715386E+03   -0.71867E-04   -0.19709E-03    60   0.264E-01    0.390E-02
RMM:   4    -0.101513770069E+03   -0.54683E-04   -0.44350E-04    64   0.121E-01    0.197E-02
RMM:   5    -0.101513780804E+03   -0.10735E-04   -0.70194E-05    54   0.488E-02    0.761E-03
RMM:   6    -0.101513786807E+03   -0.60037E-05   -0.15138E-05    41   0.227E-02
  10 F= -.10174088E+03 E0= -.10174088E+03  d E =-.644822E-02
 BRION: g(F)=  0.602E-01 g(S)=  0.000E+00 retain N=  3 mean eig= 3.98
 eig:   5.289  5.289  1.352
 bond charge predicted
       N       E                     dE             d eps       ncg     rms          rms(c)
DAV:   1    -0.101521518515E+03   -0.77377E-02   -0.18193E+00    60   0.745E+00    0.285E-01
RMM:   2    -0.101522790842E+03   -0.12723E-02   -0.23160E-02    60   0.841E-01    0.176E-01
RMM:   3    -0.101522914677E+03   -0.12383E-03   -0.38848E-03    60   0.372E-01    0.536E-02
RMM:   4    -0.101523016707E+03   -0.10203E-03   -0.85846E-04    64   0.169E-01    0.272E-02
RMM:   5    -0.101523033058E+03   -0.16351E-04   -0.14013E-04    60   0.683E-02    0.114E-02
RMM:   6    -0.101523040929E+03   -0.78710E-05   -0.29627E-05    43   0.313E-02
  11 F= -.10174951E+03 E0= -.10174951E+03  d E =-.863214E-02
 BRION: g(F)=  0.509E-01 g(S)=  0.000E+00 retain N=  3 mean eig= 5.48
 eig:   7.382  7.382  1.676
 bond charge predicted
       N       E                     dE             d eps       ncg     rms          rms(c)
DAV:   1    -0.101532665968E+03   -0.96329E-02   -0.27184E+00    60   0.912E+00    0.356E-01
RMM:   2    -0.101534648305E+03   -0.19823E-02   -0.35379E-02    60   0.104E+00    0.217E-01
RMM:   3    -0.101534821953E+03   -0.17365E-03   -0.58368E-03    60   0.457E-01    0.734E-02
RMM:   4    -0.101534982126E+03   -0.16017E-03   -0.13459E-03    64   0.211E-01    0.348E-02
RMM:   5    -0.101535006672E+03   -0.24546E-04   -0.21596E-04    65   0.845E-02    0.120E-02
RMM:   6    -0.101535017109E+03   -0.10437E-04   -0.46033E-05    49   0.385E-02    0.526E-03
RMM:   7    -0.101535025085E+03   -0.79756E-05   -0.97310E-06    40   0.168E-02
  12 F= -.10176066E+03 E0= -.10176066E+03  d E =-.111518E-01
 BRION: g(F)=  0.418E-01 g(S)=  0.000E+00 retain N=  2 mean eig= 5.01
 eig:   5.010  5.010
 bond charge predicted
       N       E                     dE             d eps       ncg     rms          rms(c)
DAV:   1    -0.101541174416E+03   -0.61573E-02   -0.69841E-01    60   0.464E+00    0.180E-01
RMM:   2    -0.101541665766E+03   -0.49135E-03   -0.91204E-03    60   0.530E-01    0.112E-01
RMM:   3    -0.101541736865E+03   -0.71098E-04   -0.15538E-03    60   0.235E-01    0.306E-02
RMM:   4    -0.101541777374E+03   -0.40510E-04   -0.32289E-04    64   0.106E-01    0.141E-02
RMM:   5    -0.101541787025E+03   -0.96507E-05   -0.64577E-05    52   0.478E-02
  13 F= -.10176697E+03 E0= -.10176697E+03  d E =-.630693E-02
 BRION: g(F)=  0.391E-01 g(S)=  0.000E+00 retain N=  3 mean eig= 4.95
 eig:   6.647  6.647  1.549
 bond charge predicted
       N       E                     dE             d eps       ncg     rms          rms(c)
DAV:   1    -0.101548631408E+03   -0.68540E-02   -0.10741E+00    60   0.574E+00    0.224E-01
RMM:   2    -0.101549394004E+03   -0.76260E-03   -0.14097E-02    60   0.659E-01    0.138E-01
RMM:   3    -0.101549490314E+03   -0.96309E-04   -0.24017E-03    60   0.293E-01    0.405E-02
RMM:   4    -0.101549552942E+03   -0.62629E-04   -0.50999E-04    64   0.133E-01    0.184E-02
RMM:   5    -0.101549565799E+03   -0.12857E-04   -0.10219E-04    58   0.600E-02    0.705E-03
RMM:   6    -0.101549570984E+03   -0.51851E-05   -0.19243E-05    42   0.253E-02
  14 F= -.10177418E+03 E0= -.10177418E+03  d E =-.721307E-02
 BRION: g(F)=  0.314E-01 g(S)=  0.000E+00 retain N=  2 mean eig= 3.20
 eig:   3.200  3.200
 bond charge predicted
       N       E                     dE             d eps       ncg     rms          rms(c)
DAV:   1    -0.101554849561E+03   -0.52838E-02   -0.32753E-01    60   0.320E+00    0.127E-01
RMM:   2    -0.101555085656E+03   -0.23609E-03   -0.44219E-03    60   0.372E-01    0.787E-02
RMM:   3    -0.101555128437E+03   -0.42781E-04   -0.75829E-04    60   0.165E-01    0.218E-02
RMM:   4    -0.101555149625E+03   -0.21188E-04   -0.15988E-04    62   0.744E-02    0.971E-03
RMM:   5    -0.101555155423E+03   -0.57985E-05   -0.31095E-05    42   0.340E-02
  15 F= -.10177941E+03 E0= -.10177941E+03  d E =-.522595E-02
 BRION: g(F)=  0.287E-01 g(S)=  0.000E+00 retain N=  3 mean eig= 4.74
 eig:   6.391  6.391  1.425
 bond charge predicted
       N       E                     dE             d eps       ncg     rms          rms(c)
DAV:   1    -0.101560646335E+03   -0.54967E-02   -0.41046E-01    60   0.358E+00    0.142E-01
RMM:   2    -0.101560937837E+03   -0.29150E-03   -0.55325E-03    60   0.416E-01    0.881E-02
RMM:   3    -0.101560987215E+03   -0.49378E-04   -0.96434E-04    60   0.186E-01    0.227E-02
RMM:   4    -0.101561011803E+03   -0.24588E-04   -0.19579E-04    64   0.831E-02    0.104E-02
RMM:   5    -0.101561017241E+03   -0.54376E-05   -0.38165E-05    45   0.379E-02
  16 F= -.10178487E+03 E0= -.10178487E+03  d E =-.546359E-02
 BRION: g(F)=  0.260E-01 g(S)=  0.000E+00 retain N=  3 mean eig= 5.21
 eig:   6.944  6.944  1.745
 bond charge predicted
       N       E                     dE             d eps       ncg     rms          rms(c)
DAV:   1    -0.101567285332E+03   -0.62735E-02   -0.37337E-01    60   0.345E+00    0.140E-01
RMM:   2    -0.101567559842E+03   -0.27451E-03   -0.51522E-03    60   0.405E-01    0.865E-02
RMM:   3    -0.101567612778E+03   -0.52936E-04   -0.90043E-04    60   0.180E-01    0.225E-02
RMM:   4    -0.101567636324E+03   -0.23546E-04   -0.18628E-04    63   0.809E-02    0.101E-02
RMM:   5    -0.101567641194E+03   -0.48703E-05   -0.36424E-05    45   0.373E-02
  17 F= -.10179108E+03 E0= -.10179108E+03  d E =-.620446E-02
 BRION: g(F)=  0.230E-01 g(S)=  0.000E+00 retain N=  2 mean eig= 5.28
 eig:   5.279  5.279
 bond charge predicted
       N       E                     dE             d eps       ncg     rms          rms(c)
DAV:   1    -0.101572290529E+03   -0.46542E-02   -0.14273E-01    60   0.216E+00    0.903E-02
RMM:   2    -0.101572394260E+03   -0.10373E-03   -0.19978E-03    60   0.256E-01    0.557E-02
RMM:   3    -0.101572421624E+03   -0.27364E-04   -0.36173E-04    60   0.115E-01    0.128E-02
RMM:   4    -0.101572431921E+03   -0.10297E-04   -0.72393E-05    57   0.511E-02    0.584E-03
RMM:   5    -0.101572435622E+03   -0.37011E-05   -0.14318E-05    42   0.238E-02
  18 F= -.10179559E+03 E0= -.10179559E+03  d E =-.451527E-02
 BRION: g(F)=  0.219E-01 g(S)=  0.000E+00 retain N=  3 mean eig= 5.72
 eig:   7.537  7.537  2.078
 bond charge predicted
       N       E                     dE             d eps       ncg     rms          rms(c)
DAV:   1    -0.101576944698E+03   -0.45128E-02   -0.13780E-01    60   0.213E+00    0.894E-02
RMM:   2    -0.101577044644E+03   -0.99947E-04   -0.19220E-03    60   0.251E-01    0.551E-02
RMM:   3    -0.101577072123E+03   -0.27479E-04   -0.34705E-04    60   0.113E-01    0.127E-02
RMM:   4    -0.101577081717E+03   -0.95939E-05   -0.70441E-05    54   0.503E-02
  19 F= -.10179996E+03 E0= -.10179996E+03  d E =-.436521E-02
 BRION: g(F)=  0.194E-01 g(S)=  0.000E+00 retain N=  2 mean eig= 3.93
 eig:   3.931  3.931
 bond charge predicted
       N       E                     dE             d eps       ncg     rms          rms(c)
DAV:   1    -0.101581963085E+03   -0.48910E-02   -0.12678E-01    60   0.207E+00    0.914E-02
RMM:   2    -0.101582051670E+03   -0.88585E-04   -0.17678E-03    60   0.245E-01    0.562E-02
RMM:   3    -0.101582081203E+03   -0.29533E-04   -0.32719E-04    60   0.110E-01    0.126E-02
RMM:   4    -0.101582090668E+03   -0.94649E-05   -0.70579E-05    56   0.489E-02
  20 F= -.10180469E+03 E0= -.10180469E+03  d E =-.472673E-02
 BRION: g(F)=  0.179E-01 g(S)=  0.000E+00 retain N=  3 mean eig= 5.25
 eig:   7.016  7.016  1.717
 bond charge predicted
       N       E                     dE             d eps       ncg     rms          rms(c)
DAV:   1    -0.101586391120E+03   -0.43099E-02   -0.11262E-01    60   0.195E+00    0.862E-02
RMM:   2    -0.101586468213E+03   -0.77093E-04   -0.15625E-03    60   0.230E-01    0.531E-02
RMM:   3    -0.101586494789E+03   -0.26576E-04   -0.29311E-04    60   0.104E-01    0.107E-02
RMM:   4    -0.101586503003E+03   -0.82146E-05   -0.59402E-05    52   0.460E-02
  21 F= -.10180883E+03 E0= -.10180883E+03  d E =-.414647E-02
 BRION: g(F)=  0.158E-01 g(S)=  0.000E+00 retain N=  3 mean eig= 5.91
 eig:   7.979  7.979  1.775
 bond charge predicted
       N       E                     dE             d eps       ncg     rms          rms(c)
DAV:   1    -0.101591150707E+03   -0.46559E-02   -0.11361E-01    60   0.199E+00    0.918E-02
RMM:   2    -0.101591217620E+03   -0.66912E-04   -0.14537E-03    60   0.227E-01    0.559E-02
RMM:   3    -0.101591248265E+03   -0.30645E-04   -0.28741E-04    60   0.103E-01    0.101E-02
RMM:   4    -0.101591256997E+03   -0.87317E-05   -0.65180E-05    56   0.461E-02
  22 F= -.10181332E+03 E0= -.10181332E+03  d E =-.448847E-02
 BRION: g(F)=  0.140E-01 g(S)=  0.000E+00 retain N=  2 mean eig= 6.62
 eig:   6.620  6.620
 bond charge predicted
       N       E                     dE             d eps       ncg     rms          rms(c)
DAV:   1    -0.101595035773E+03   -0.37875E-02   -0.80731E-02    60   0.169E+00    0.798E-02
RMM:   2    -0.101595074317E+03   -0.38543E-04   -0.93333E-04    60   0.184E-01    0.485E-02
RMM:   3    -0.101595098088E+03   -0.23771E-04   -0.19582E-04    60   0.839E-02    0.719E-03
RMM:   4    -0.101595105259E+03   -0.71716E-05   -0.50834E-05    49   0.386E-02
  23 F= -.10181698E+03 E0= -.10181698E+03  d E =-.365658E-02
 BRION: g(F)=  0.130E-01 g(S)=  0.000E+00 retain N=  1 mean eig= 4.17
 eig:   4.170
 bond charge predicted
       N       E                     dE             d eps       ncg     rms          rms(c)
DAV:   1    -0.101594952204E+03    0.14588E-03   -0.10307E-02    72   0.571E-01    0.235E-02
RMM:   2    -0.101594959837E+03   -0.76330E-05   -0.14892E-04    54   0.657E-02    0.143E-02
RMM:   3    -0.101594963687E+03   -0.38502E-05   -0.25344E-05    44   0.278E-02
  24 F= -.10181688E+03 E0= -.10181688E+03  d E =0.950988E-04
 BRION: g(F)=  0.122E-01 g(S)=  0.000E+00 retain N=  1 mean eig= 0.58
 eig:   0.580
 bond charge predicted
       N       E                     dE             d eps       ncg     rms          rms(c)
DAV:   1    -0.101595564689E+03   -0.60485E-03   -0.72170E-03    72   0.505E-01    0.219E-02
RMM:   2    -0.101595569098E+03   -0.44093E-05   -0.93451E-05    57   0.564E-02
  25 F= -.10181748E+03 E0= -.10181748E+03  d E =-.602114E-03
 BRION: g(F)=  0.113E-01 g(S)=  0.000E+00 retain N=  1 mean eig= 0.80
 eig:   0.795
 bond charge predicted
       N       E                     dE             d eps       ncg     rms          rms(c)
DAV:   1    -0.101596147495E+03   -0.58281E-03   -0.12522E-02    60   0.659E-01    0.299E-02
RMM:   2    -0.101596155314E+03   -0.78188E-05   -0.16664E-04    58   0.742E-02    0.185E-02
RMM:   3    -0.101596160038E+03   -0.47247E-05   -0.30952E-05    47   0.322E-02
  26 F= -.10181808E+03 E0= -.10181808E+03  d E =-.599144E-03
 BRION: g(F)=  0.106E-01 g(S)=  0.000E+00 retain N=  2 mean eig= 3.34
 eig:   3.341  3.341
 bond charge predicted
       N       E                     dE             d eps       ncg     rms          rms(c)
DAV:   1    -0.101601744921E+03   -0.55896E-02   -0.24620E+00    60   0.924E+00    0.366E-01
RMM:   2    -0.101603546816E+03   -0.18019E-02   -0.29020E-02    60   0.999E-01    0.225E-01
RMM:   3    -0.101603915197E+03   -0.36838E-03   -0.51641E-03    61   0.424E-01    0.569E-02
RMM:   4    -0.101604069379E+03   -0.15418E-03   -0.13365E-03    67   0.194E-01    0.260E-02
RMM:   5    -0.101604093984E+03   -0.24604E-04   -0.18305E-04    62   0.821E-02    0.143E-02
RMM:   6    -0.101604108995E+03   -0.15011E-04   -0.45304E-05    48   0.367E-02    0.650E-03
RMM:   7    -0.101604121397E+03   -0.12402E-04   -0.71946E-06    39   0.150E-02    0.230E-03
RMM:   8    -0.101604130944E+03   -0.95466E-05   -0.30455E-06    39   0.933E-03
  27 F= -.10182609E+03 E0= -.10182609E+03  d E =-.800998E-02
 BRION: g(F)=  0.592E-02 g(S)=  0.000E+00
 BRIONS problems: POTIM should be increased
 retain N=  1 mean eig=13.73
 eig:  13.731
 bond charge predicted
       N       E                     dE             d eps       ncg     rms          rms(c)
DAV:   1    -0.101603625162E+03    0.49624E-03   -0.25252E-02    72   0.925E-01    0.404E-02
RMM:   2    -0.101603638254E+03   -0.13092E-04   -0.35688E-04    60   0.105E-01    0.247E-02
RMM:   3    -0.101603645004E+03   -0.67502E-05   -0.70404E-05    52   0.444E-02
  28 F= -.10182560E+03 E0= -.10182560E+03  d E =0.494576E-03
 BRION: g(F)=  0.654E-02 g(S)=  0.000E+00 retain N=  1 mean eig= 0.57
 eig:   0.567
 bond charge predicted
       N       E                     dE             d eps       ncg     rms          rms(c)
DAV:   1    -0.101604374773E+03   -0.73652E-03   -0.22244E-02    66   0.881E-01    0.350E-02
RMM:   2    -0.101604388621E+03   -0.13848E-04   -0.27306E-04    60   0.960E-02    0.212E-02
RMM:   3    -0.101604393078E+03   -0.44571E-05   -0.46827E-05    49   0.400E-02
  29 F= -.10182635E+03 E0= -.10182635E+03  d E =-.749151E-03
 BRION: g(F)=  0.384E-02 g(S)=  0.000E+00 retain N=  1 mean eig= 0.76
 eig:   0.761
 bond charge predicted
       N       E                     dE             d eps       ncg     rms          rms(c)
DAV:   1    -0.101604930361E+03   -0.54174E-03   -0.91169E-03    72   0.565E-01    0.240E-02
RMM:   2    -0.101604937286E+03   -0.69250E-05   -0.12181E-04    59   0.643E-02    0.150E-02
RMM:   3    -0.101604941109E+03   -0.38234E-05   -0.24724E-05    44   0.283E-02
  30 F= -.10182689E+03 E0= -.10182689E+03  d E =-.543934E-03
 BRION: g(F)=  0.366E-02 g(S)=  0.000E+00 retain N=  2 mean eig= 2.22
 eig:   0.950  3.485
 bond charge predicted
       N       E                     dE             d eps       ncg     rms          rms(c)
DAV:   1    -0.101606204873E+03   -0.12676E-02   -0.51091E-02    60   0.134E+00    0.553E-02
RMM:   2    -0.101606237848E+03   -0.32975E-04   -0.65129E-04    60   0.149E-01    0.340E-02
RMM:   3    -0.101606250453E+03   -0.12605E-04   -0.12401E-04    61   0.646E-02    0.803E-03
RMM:   4    -0.101606254448E+03   -0.39948E-05   -0.29492E-05    46   0.294E-02
  31 F= -.10182819E+03 E0= -.10182819E+03  d E =-.129791E-02
 BRION: g(F)=  0.362E-02 g(S)=  0.000E+00 retain N=  3 mean eig= 3.73
 eig:   0.911  5.134  5.134
 bond charge predicted
       N       E                     dE             d eps       ncg     rms          rms(c)
DAV:   1    -0.101610128516E+03   -0.38781E-02   -0.65016E-01    60   0.477E+00    0.197E-01
RMM:   2    -0.101610562913E+03   -0.43440E-03   -0.80769E-03    60   0.523E-01    0.120E-01
RMM:   3    -0.101610684561E+03   -0.12165E-03   -0.15184E-03    61   0.226E-01    0.284E-02
RMM:   4    -0.101610729653E+03   -0.45092E-04   -0.38176E-04    67   0.102E-01    0.145E-02
RMM:   5    -0.101610738590E+03   -0.89369E-05   -0.47945E-05    48   0.424E-02
  32 F= -.10183261E+03 E0= -.10183261E+03  d E =-.441606E-02
 BRION: g(F)=  0.280E-02 g(S)=  0.000E+00
 BRIONS problems: POTIM should be increased
 retain N=  1 mean eig=11.53
 eig:  11.535
 bond charge predicted
       N       E                     dE             d eps       ncg     rms          rms(c)
DAV:   1    -0.101611331788E+03   -0.60213E-03   -0.73389E-03    88   0.502E-01    0.221E-02
RMM:   2    -0.101611335573E+03   -0.37855E-05   -0.95388E-05    57   0.567E-02
  33 F= -.10183318E+03 E0= -.10183318E+03  d E =-.573932E-03
 BRION: g(F)=  0.290E-02 g(S)=  0.000E+00 retain N=  1 mean eig= 0.47
 eig:   0.465
 bond charge predicted
       N       E                     dE             d eps       ncg     rms          rms(c)
DAV:   1    -0.101611480248E+03   -0.14846E-03   -0.40639E-04    74   0.119E-01    0.861E-03
RMM:   2    -0.101611482239E+03   -0.19915E-05   -0.87554E-06    37   0.167E-02
  34 F= -.10183332E+03 E0= -.10183332E+03  d E =-.137697E-03
 BRION: g(F)=  0.261E-02 g(S)=  0.000E+00 retain N=  1 mean eig= 0.48
 eig:   0.484
 bond charge predicted
       N       E                     dE             d eps       ncg     rms          rms(c)
DAV:   1    -0.101611954838E+03   -0.47459E-03   -0.40010E-03    72   0.366E-01    0.162E-02
RMM:   2    -0.101611957887E+03   -0.30484E-05   -0.50427E-05    49   0.413E-02
  35 F= -.10183377E+03 E0= -.10183377E+03  d E =-.452806E-03
 BRION: g(F)=  0.255E-02 g(S)=  0.000E+00 retain N=  2 mean eig= 1.89
 eig:   0.319  3.464
 bond charge predicted
       N       E                     dE             d eps       ncg     rms          rms(c)
DAV:   1    -0.101615395752E+03   -0.34409E-02   -0.24167E-01    60   0.283E+00    0.118E-01
RMM:   2    -0.101615514493E+03   -0.11874E-03   -0.29259E-03    60   0.315E-01    0.732E-02
RMM:   3    -0.101615559736E+03   -0.45244E-04   -0.63895E-04    61   0.146E-01    0.126E-02
RMM:   4    -0.101615575255E+03   -0.15519E-04   -0.13368E-04    61   0.631E-02    0.874E-03
RMM:   5    -0.101615579529E+03   -0.42740E-05   -0.23579E-05    43   0.286E-02
  36 F= -.10183720E+03 E0= -.10183720E+03  d E =-.343133E-02
 BRION: g(F)=  0.271E-02 g(S)=  0.000E+00 retain N=  3 mean eig= 4.79
 eig:   0.437  6.959  6.959
 bond charge predicted
       N       E                     dE             d eps       ncg     rms          rms(c)
DAV:   1    -0.101617890113E+03   -0.23149E-02   -0.11182E-01    60   0.192E+00    0.796E-02
RMM:   2    -0.101617942255E+03   -0.52142E-04   -0.13590E-03    60   0.215E-01    0.494E-02
RMM:   3    -0.101617963063E+03   -0.20808E-04   -0.30151E-04    61   0.100E-01    0.836E-03
RMM:   4    -0.101617970696E+03   -0.76327E-05   -0.59999E-05    51   0.434E-02
  37 F= -.10183945E+03 E0= -.10183945E+03  d E =-.225181E-02
 BRION: g(F)=  0.253E-02 g(S)=  0.000E+00 retain N=  2 mean eig= 4.13
 eig:   4.130  4.130
 bond charge predicted
       N       E                     dE             d eps       ncg     rms          rms(c)
DAV:   1    -0.101616467071E+03    0.14960E-02   -0.46602E-02    60   0.125E+00    0.511E-02
RMM:   2    -0.101616489901E+03   -0.22830E-04   -0.53375E-04    60   0.135E-01    0.313E-02
RMM:   3    -0.101616501694E+03   -0.11794E-04   -0.11295E-04    61   0.611E-02    0.543E-03
RMM:   4    -0.101616505361E+03   -0.36667E-05   -0.21550E-05    42   0.265E-02
  38 F= -.10183807E+03 E0= -.10183807E+03  d E =0.138630E-02
 BRION: g(F)=  0.249E-02 g(S)=  0.000E+00 retain N=  2 mean eig= 2.94
 eig:   2.939  2.939
 bond charge predicted
       N       E                     dE             d eps       ncg     rms          rms(c)
DAV:   1    -0.101618394240E+03   -0.18925E-02   -0.71291E-02    72   0.152E+00    0.627E-02
RMM:   2    -0.101618422775E+03   -0.28535E-04   -0.81573E-04    60   0.166E-01    0.386E-02
RMM:   3    -0.101618434378E+03   -0.11603E-04   -0.18002E-04    61   0.771E-02    0.612E-03
RMM:   4    -0.101618437866E+03   -0.34883E-05   -0.32335E-05    46   0.331E-02
  39 F= -.10183988E+03 E0= -.10183988E+03  d E =-.181328E-02
 BRION: g(F)=  0.232E-02 g(S)=  0.000E+00
 BRIONS problems: POTIM should be increased
 retain N=  1 mean eig= 8.88
 eig:   8.881
 bond charge predicted
       N       E                     dE             d eps       ncg     rms          rms(c)
DAV:   1    -0.101620851916E+03   -0.24175E-02   -0.12102E-01    60   0.197E+00    0.820E-02
RMM:   2    -0.101620904956E+03   -0.53040E-04   -0.14518E-03    60   0.220E-01    0.511E-02
RMM:   3    -0.101620924558E+03   -0.19602E-04   -0.33153E-04    61   0.104E-01    0.790E-03
RMM:   4    -0.101620931114E+03   -0.65560E-05   -0.62158E-05    51   0.445E-02
  40 F= -.10184220E+03 E0= -.10184220E+03  d E =-.231906E-02
 BRION: g(F)=  0.235E-02 g(S)=  0.000E+00 retain N=  1 mean eig= 5.42
 eig:   5.424
 bond charge predicted
       N       E                     dE             d eps       ncg     rms          rms(c)
DAV:   1    -0.101619640760E+03    0.12838E-02   -0.33518E-02    60   0.104E+00    0.428E-02
RMM:   2    -0.101619653942E+03   -0.13183E-04   -0.36981E-04    60   0.112E-01    0.262E-02
RMM:   3    -0.101619661025E+03   -0.70824E-05   -0.80131E-05    60   0.514E-02
  41 F= -.10184101E+03 E0= -.10184101E+03  d E =0.118592E-02
 BRION: g(F)=  0.238E-02 g(S)=  0.000E+00 retain N=  1 mean eig= 2.33
 eig:   2.328
 bond charge predicted
       N       E                     dE             d eps       ncg     rms          rms(c)
DAV:   1    -0.101620943313E+03   -0.12894E-02   -0.31989E-02    66   0.100E+00    0.411E-02
RMM:   2    -0.101620950714E+03   -0.74011E-05   -0.33642E-04    60   0.105E-01    0.251E-02
RMM:   3    -0.101620953688E+03   -0.29734E-05   -0.79633E-05    58   0.499E-02
  42 F= -.10184221E+03 E0= -.10184221E+03  d E =-.119786E-02
 BRION: g(F)=  0.229E-02 g(S)=  0.000E+00 retain N=  2 mean eig= 6.13
 eig:   6.128  6.128
 bond charge predicted
       N       E                     dE             d eps       ncg     rms          rms(c)
DAV:   1    -0.101623644836E+03   -0.26941E-02   -0.15897E-01    60   0.224E+00    0.926E-02
RMM:   2    -0.101623716795E+03   -0.71958E-04   -0.18922E-03    60   0.249E-01    0.579E-02
RMM:   3    -0.101623742749E+03   -0.25954E-04   -0.43316E-04    61   0.119E-01    0.835E-03
RMM:   4    -0.101623750728E+03   -0.79790E-05   -0.81004E-05    57   0.509E-02
  43 F= -.10184479E+03 E0= -.10184479E+03  d E =-.257633E-02
 BRION: g(F)=  0.227E-02 g(S)=  0.000E+00 retain N=  1 mean eig= 5.27
 eig:   5.268
 bond charge predicted
       N       E                     dE             d eps       ncg     rms          rms(c)
DAV:   1    -0.101623160083E+03    0.58267E-03   -0.81898E-03    72   0.516E-01    0.208E-02
RMM:   2    -0.101623163212E+03   -0.31288E-05   -0.83116E-05    57   0.533E-02
  44 F= -.10184424E+03 E0= -.10184424E+03  d E =0.547234E-03
 BRION: g(F)=  0.229E-02 g(S)=  0.000E+00 retain N=  1 mean eig= 1.20
 eig:   1.204
 bond charge predicted
       N       E                     dE             d eps       ncg     rms          rms(c)
DAV:   1    -0.101624008393E+03   -0.84831E-03   -0.15135E-02    66   0.677E-01    0.266E-02
RMM:   2    -0.101624013044E+03   -0.46507E-05   -0.16331E-04    60   0.727E-02    0.165E-02
RMM:   3    -0.101624014647E+03   -0.16039E-05   -0.37516E-05    51   0.345E-02
  45 F= -.10184502E+03 E0= -.10184502E+03  d E =-.779286E-03
 BRION: g(F)=  0.218E-02 g(S)=  0.000E+00 retain N=  2 mean eig= 4.56
 eig:   1.892  7.231
 bond charge predicted
       N       E                     dE             d eps       ncg     rms          rms(c)
DAV:   1    -0.101626486579E+03   -0.24735E-02   -0.13968E-01    60   0.207E+00    0.851E-02
RMM:   2    -0.101626542474E+03   -0.55895E-04   -0.16228E-03    60   0.227E-01    0.533E-02
RMM:   3    -0.101626561223E+03   -0.18749E-04   -0.37883E-04    61   0.110E-01    0.747E-03
RMM:   4    -0.101626567168E+03   -0.59453E-05   -0.62867E-05    52   0.469E-02
  46 F= -.10184734E+03 E0= -.10184734E+03  d E =-.231744E-02
 BRION: g(F)=  0.224E-02 g(S)=  0.000E+00 retain N=  3 mean eig= 5.86
 eig:   1.639  7.973  7.973
 bond charge predicted
       N       E                     dE             d eps       ncg     rms          rms(c)
DAV:   1    -0.101630242048E+03   -0.36808E-02   -0.34173E-01    60   0.322E+00    0.132E-01
RMM:   2    -0.101630379290E+03   -0.13724E-03   -0.39343E-03    60   0.352E-01    0.828E-02
RMM:   3    -0.101630411648E+03   -0.32358E-04   -0.93374E-04    61   0.171E-01    0.113E-02
RMM:   4    -0.101630425453E+03   -0.13806E-04   -0.15167E-04    63   0.724E-02    0.853E-03
RMM:   5    -0.101630430047E+03   -0.45935E-05   -0.37588E-05    45   0.344E-02
  47 F= -.10185082E+03 E0= -.10185082E+03  d E =-.348089E-02
 BRION: g(F)=  0.205E-02 g(S)=  0.000E+00 retain N=  2 mean eig= 6.76
 eig:   6.757  6.757
 bond charge predicted
       N       E                     dE             d eps       ncg     rms          rms(c)
DAV:   1    -0.101630265009E+03    0.16044E-03   -0.13485E-03    72   0.213E-01    0.865E-03
RMM:   2    -0.101630266596E+03   -0.15872E-05   -0.15405E-05    41   0.226E-02
  48 F= -.10185066E+03 E0= -.10185066E+03  d E =0.154017E-03
 BRION: g(F)=  0.204E-02 g(S)=  0.000E+00 retain N=  2 mean eig= 4.64
 eig:   7.331  1.948
 bond charge predicted
       N       E                     dE             d eps       ncg     rms          rms(c)
DAV:   1    -0.101631364073E+03   -0.10991E-02   -0.29787E-02    66   0.945E-01    0.380E-02
RMM:   2    -0.101631374333E+03   -0.10261E-04   -0.33118E-04    60   0.102E-01    0.237E-02
RMM:   3    -0.101631378273E+03   -0.39395E-05   -0.76519E-05    58   0.491E-02
  49 F= -.10185166E+03 E0= -.10185166E+03  d E =-.991402E-03
 BRION: g(F)=  0.197E-02 g(S)=  0.000E+00 retain N=  1 mean eig= 7.11
 eig:   7.111
 bond charge predicted
       N       E                     dE             d eps       ncg     rms          rms(c)
DAV:   1    -0.101633156325E+03   -0.17820E-02   -0.85229E-02    60   0.160E+00    0.655E-02
RMM:   2    -0.101633194663E+03   -0.38338E-04   -0.10207E-03    60   0.178E-01    0.413E-02
RMM:   3    -0.101633207890E+03   -0.13227E-04   -0.22879E-04    60   0.861E-02    0.554E-03
RMM:   4    -0.101633211666E+03   -0.37755E-05   -0.38056E-05    47   0.374E-02
  50 F= -.10185328E+03 E0= -.10185328E+03  d E =-.162348E-02
 BRION: g(F)=  0.194E-02 g(S)=  0.000E+00 retain N=  1 mean eig= 4.09
 eig:   4.090
 bond charge predicted
       N       E                     dE             d eps       ncg     rms          rms(c)
DAV:   1    -0.101633139175E+03    0.68716E-04   -0.30291E-04    72   0.103E-01    0.420E-03
RMM:   2    -0.101633139698E+03   -0.52334E-06   -0.36715E-06    39   0.111E-02
  51 F= -.10185321E+03 E0= -.10185321E+03  d E =0.665527E-04
 BRION: g(F)=  0.192E-02 g(S)=  0.000E+00 retain N=  1 mean eig= 0.49
 eig:   0.488
 bond charge predicted
       N       E                     dE             d eps       ncg     rms          rms(c)
DAV:   1    -0.101633638337E+03   -0.49916E-03   -0.65216E-03    72   0.442E-01    0.176E-02
RMM:   2    -0.101633641166E+03   -0.28291E-05   -0.75576E-05    52   0.485E-02
  52 F= -.10185365E+03 E0= -.10185365E+03  d E =-.440979E-03
 BRION: g(F)=  0.185E-02 g(S)=  0.000E+00 retain N=  2 mean eig= 1.58
 eig:   0.976  2.183
 bond charge predicted
       N       E                     dE             d eps       ncg     rms          rms(c)
DAV:   1    -0.101638047926E+03   -0.44096E-02   -0.62098E-01    60   0.431E+00    0.177E-01
RMM:   2    -0.101638318302E+03   -0.27038E-03   -0.71987E-03    60   0.471E-01    0.110E-01
RMM:   3    -0.101638358990E+03   -0.40688E-04   -0.15882E-03    60   0.226E-01    0.156E-02
RMM:   4    -0.101638382642E+03   -0.23653E-04   -0.24874E-04    64   0.960E-02    0.113E-02
RMM:   5    -0.101638388789E+03   -0.61467E-05   -0.66669E-05    52   0.458E-02
  53 F= -.10185779E+03 E0= -.10185779E+03  d E =-.413739E-02
 BRION: g(F)=  0.165E-02 g(S)=  0.000E+00
 BRIONS problems: POTIM should be increased
 retain N=  1 mean eig= 9.82
 eig:   9.819
 bond charge predicted
       N       E                     dE             d eps       ncg     rms          rms(c)
DAV:   1    -0.101638433880E+03   -0.51238E-04   -0.36637E-04    72   0.102E-01    0.837E-03
RMM:   2    -0.101638434111E+03   -0.23124E-06   -0.11480E-05    41   0.167E-02
  54 F= -.10185783E+03 E0= -.10185783E+03  d E =-.398198E-04
 BRION: g(F)=  0.166E-02 g(S)=  0.000E+00 retain N=  1 mean eig= 0.47
 eig:   0.468
 bond charge predicted
       N       E                     dE             d eps       ncg     rms          rms(c)
DAV:   1    -0.101638799114E+03   -0.36523E-03   -0.35822E-03    72   0.331E-01    0.145E-02
RMM:   2    -0.101638800879E+03   -0.17650E-05   -0.44614E-05    46   0.376E-02
  55 F= -.10185815E+03 E0= -.10185815E+03  d E =-.319305E-03
 BRION: g(F)=  0.153E-02 g(S)=  0.000E+00 retain N=  1 mean eig= 0.72
 eig:   0.725
 bond charge predicted
       N       E                     dE             d eps       ncg     rms          rms(c)
DAV:   1    -0.101639266563E+03   -0.46745E-03   -0.52633E-03    72   0.404E-01    0.190E-02
RMM:   2    -0.101639268419E+03   -0.18563E-05   -0.65908E-05    48   0.452E-02
  56 F= -.10185856E+03 E0= -.10185856E+03  d E =-.406365E-03
 BRION: g(F)=  0.150E-02 g(S)=  0.000E+00 retain N=  2 mean eig= 2.54
 eig:   1.691  3.392
 bond charge predicted
       N       E                     dE             d eps       ncg     rms          rms(c)
DAV:   1    -0.101641657159E+03   -0.23906E-02   -0.15483E-01    60   0.217E+00    0.925E-02
RMM:   2    -0.101641717337E+03   -0.60178E-04   -0.18177E-03    60   0.239E-01    0.576E-02
RMM:   3    -0.101641736140E+03   -0.18803E-04   -0.41778E-04    60   0.116E-01    0.741E-03
RMM:   4    -0.101641742412E+03   -0.62720E-05   -0.66973E-05    53   0.497E-02
  57 F= -.10186070E+03 E0= -.10186070E+03  d E =-.214477E-02
 BRION: g(F)=  0.139E-02 g(S)=  0.000E+00 retain N=  2 mean eig= 6.20
 eig:   6.200  6.200
 bond charge predicted
       N       E                     dE             d eps       ncg     rms          rms(c)
DAV:   1    -0.101643102983E+03   -0.13668E-02   -0.49059E-02    60   0.123E+00    0.531E-02
RMM:   2    -0.101643122973E+03   -0.19989E-04   -0.62124E-04    60   0.140E-01    0.330E-02
RMM:   3    -0.101643129550E+03   -0.65768E-05   -0.14169E-04    60   0.680E-02    0.503E-03
RMM:   4    -0.101643132359E+03   -0.28096E-05   -0.23189E-05    42   0.295E-02
  58 F= -.10186190E+03 E0= -.10186190E+03  d E =-.120124E-02
 BRION: g(F)=  0.135E-02 g(S)=  0.000E+00 retain N=  2 mean eig= 4.58
 eig:   5.751  3.409
 bond charge predicted
       N       E                     dE             d eps       ncg     rms          rms(c)
DAV:   1    -0.101643766215E+03   -0.63667E-03   -0.10039E-02    66   0.556E-01    0.246E-02
RMM:   2    -0.101643770456E+03   -0.42401E-05   -0.12820E-04    59   0.638E-02    0.153E-02
RMM:   3    -0.101643772878E+03   -0.24222E-05   -0.30844E-05    47   0.314E-02
  59 F= -.10186246E+03 E0= -.10186246E+03  d E =-.554120E-03
 BRION: g(F)=  0.132E-02 g(S)=  0.000E+00 retain N=  3 mean eig= 4.52
 eig:   6.200  6.200  1.169
 bond charge predicted
       N       E                     dE             d eps       ncg     rms          rms(c)
DAV:   1    -0.101644684431E+03   -0.91397E-03   -0.21822E-02    60   0.817E-01    0.358E-02
RMM:   2    -0.101644694214E+03   -0.97833E-05   -0.27283E-04    60   0.933E-02    0.223E-02
RMM:   3    -0.101644698805E+03   -0.45913E-05   -0.62948E-05    58   0.452E-02
  60 F= -.10186325E+03 E0= -.10186325E+03  d E =-.798347E-03
 BRION: g(F)=  0.127E-02 g(S)=  0.000E+00 retain N=  3 mean eig= 4.10
 eig:   5.568  5.568  1.173
 bond charge predicted
       N       E                     dE             d eps       ncg     rms          rms(c)
DAV:   1    -0.101644934132E+03   -0.23992E-03   -0.13539E-03    72   0.214E-01    0.104E-02
RMM:   2    -0.101644935763E+03   -0.16318E-05   -0.23667E-05    44   0.282E-02
  61 F= -.10186346E+03 E0= -.10186346E+03  d E =-.208498E-03
 BRION: g(F)=  0.125E-02 g(S)=  0.000E+00 retain N=  3 mean eig= 3.53
 eig:   1.604  4.493  4.493
 bond charge predicted
       N       E                     dE             d eps       ncg     rms          rms(c)
DAV:   1    -0.101645947375E+03   -0.10132E-02   -0.25277E-02    60   0.919E-01    0.425E-02
RMM:   2    -0.101645958675E+03   -0.11300E-04   -0.31942E-04    60   0.105E-01    0.260E-02
RMM:   3    -0.101645964105E+03   -0.54300E-05   -0.72786E-05    60   0.494E-02
  62 F= -.10186437E+03 E0= -.10186437E+03  d E =-.903409E-03
 BRION: g(F)=  0.122E-02 g(S)=  0.000E+00 retain N=  2 mean eig= 5.90
 eig:   5.902  5.902
 bond charge predicted
       N       E                     dE             d eps       ncg     rms          rms(c)
DAV:   1    -0.101646944872E+03   -0.98620E-03   -0.27136E-02    60   0.957E-01    0.438E-02
RMM:   2    -0.101646961581E+03   -0.16708E-04   -0.36683E-04    60   0.113E-01    0.270E-02
RMM:   3    -0.101646968905E+03   -0.73244E-05   -0.80449E-05    61   0.522E-02
  63 F= -.10186525E+03 E0= -.10186525E+03  d E =-.882943E-03
 BRION: g(F)=  0.119E-02 g(S)=  0.000E+00 retain N=  2 mean eig= 4.91
 eig:   4.906  4.906
 bond charge predicted
       N       E                     dE             d eps       ncg     rms          rms(c)
DAV:   1    -0.101646894542E+03    0.67038E-04   -0.31870E-04    88   0.990E-02    0.503E-03
RMM:   2    -0.101646894813E+03   -0.27095E-06   -0.42813E-06    37   0.112E-02
  64 F= -.10186519E+03 E0= -.10186519E+03  d E =0.600985E-04
 BRION: g(F)=  0.120E-02 g(S)=  0.000E+00 retain N=  3 mean eig= 3.60
 eig:   4.877  4.877  1.060
 bond charge predicted
       N       E                     dE             d eps       ncg     rms          rms(c)
DAV:   1    -0.101646867328E+03    0.27214E-04   -0.35180E-05    74   0.346E-02    0.170E-03
RMM:   2    -0.101646867845E+03   -0.51695E-06   -0.21124E-07    23   0.359E-03
  65 F= -.10186517E+03 E0= -.10186517E+03  d E =0.240908E-04
 BRION: g(F)=  0.121E-02 g(S)=  0.000E+00 retain N=  4 mean eig= 3.37
 eig:   5.465  5.465  1.269  1.269
 bond charge predicted
       N       E                     dE             d eps       ncg     rms          rms(c)
DAV:   1    -0.101646841830E+03    0.25498E-04   -0.83482E-03    60   0.499E-01    0.182E-02
RMM:   2    -0.101646849837E+03   -0.80064E-05   -0.11760E-04    51   0.570E-02    0.114E-02
RMM:   3    -0.101646851792E+03   -0.19558E-05   -0.19178E-05    39   0.236E-02
  66 F= -.10186517E+03 E0= -.10186517E+03  d E =-.800719E-05
 BRION: g(F)=  0.123E-02 g(S)=  0.000E+00 retain N=  5 mean eig= 3.27
 eig:   7.497  3.710  0.454  2.356  2.356
 bond charge predicted
       N       E                     dE             d eps       ncg     rms          rms(c)
DAV:   1    -0.101646396840E+03    0.45300E-03   -0.56822E-02    60   0.129E+00    0.463E-02
RMM:   2    -0.101646447032E+03   -0.50192E-04   -0.79508E-04    60   0.150E-01    0.294E-02
RMM:   3    -0.101646457702E+03   -0.10670E-04   -0.13322E-04    55   0.646E-02    0.101E-02
RMM:   4    -0.101646460543E+03   -0.28404E-05   -0.24658E-05    45   0.281E-02
  67 F= -.10186489E+03 E0= -.10186489E+03  d E =0.284583E-03
 BRION: g(F)=  0.122E-02 g(S)=  0.000E+00 retain N=  2 mean eig= 1.39
 eig:   1.393  1.393
 bond charge predicted
       N       E                     dE             d eps       ncg     rms          rms(c)
DAV:   1    -0.101646794764E+03   -0.33706E-03   -0.22207E-02    72   0.806E-01    0.288E-02
RMM:   2    -0.101646812283E+03   -0.17519E-04   -0.29025E-04    60   0.911E-02    0.178E-02
RMM:   3    -0.101646816150E+03   -0.38673E-05   -0.46419E-05    50   0.392E-02
  68 F= -.10186517E+03 E0= -.10186517E+03  d E =-.276250E-03
 BRION: g(F)=  0.122E-02 g(S)=  0.000E+00 retain N=  3 mean eig= 1.68
 eig:   3.422  0.811  0.811
 bond charge predicted
       N       E                     dE             d eps       ncg     rms          rms(c)
DAV:   1    -0.101646003463E+03    0.80882E-03   -0.32430E-01    60   0.309E+00    0.111E-01
RMM:   2    -0.101646302083E+03   -0.29862E-03   -0.44866E-03    60   0.352E-01    0.696E-02
RMM:   3    -0.101646359760E+03   -0.57678E-04   -0.73724E-04    62   0.148E-01    0.252E-02
RMM:   4    -0.101646372680E+03   -0.12919E-04   -0.12569E-04    55   0.637E-02    0.766E-03
RMM:   5    -0.101646375863E+03   -0.31835E-05   -0.29628E-05    46   0.287E-02
  69 F= -.10186492E+03 E0= -.10186492E+03  d E =0.249592E-03
 BRION: g(F)=  0.969E-03 g(S)=  0.000E+00 retain N=  1 mean eig= 5.72
 eig:   5.723
 bond charge predicted
       N       E                     dE             d eps       ncg     rms          rms(c)
DAV:   1    -0.101645886180E+03    0.48650E-03   -0.19016E-01    60   0.238E+00    0.866E-02
RMM:   2    -0.101646065693E+03   -0.17951E-03   -0.26989E-03    60   0.274E-01    0.544E-02
RMM:   3    -0.101646103220E+03   -0.37527E-04   -0.45549E-04    62   0.116E-01    0.196E-02
RMM:   4    -0.101646111955E+03   -0.87357E-05   -0.80501E-05    52   0.505E-02
  70 F= -.10186479E+03 E0= -.10186479E+03  d E =0.129990E-03
 BRION: g(F)=  0.947E-03 g(S)=  0.000E+00 retain N=  2 mean eig= 4.60
 eig:   4.598  4.598
 bond charge predicted
       N       E                     dE             d eps       ncg     rms          rms(c)
DAV:   1    -0.101645110448E+03    0.99277E-03   -0.40721E-01    60   0.347E+00    0.126E-01
RMM:   2    -0.101645499930E+03   -0.38948E-03   -0.57801E-03    60   0.400E-01    0.799E-02
RMM:   3    -0.101645579231E+03   -0.79301E-04   -0.96604E-04    62   0.169E-01    0.289E-02
RMM:   4    -0.101645597975E+03   -0.18744E-04   -0.16923E-04    58   0.732E-02    0.871E-03
RMM:   5    -0.101645604384E+03   -0.64086E-05   -0.43554E-05    47   0.335E-02
  71 F= -.10186448E+03 E0= -.10186448E+03  d E =0.302490E-03
 BRION: g(F)=  0.844E-03 g(S)=  0.000E+00 retain N=  2 mean eig= 4.29
 eig:   4.285  4.285
 bond charge predicted
       N       E                     dE             d eps       ncg     rms          rms(c)
DAV:   1    -0.101645508369E+03    0.89607E-04   -0.34345E-02    72   0.102E+00    0.379E-02
RMM:   2    -0.101645542555E+03   -0.34186E-04   -0.50060E-04    60   0.119E-01    0.236E-02
RMM:   3    -0.101645550363E+03   -0.78079E-05   -0.79607E-05    50   0.507E-02
  72 F= -.10186448E+03 E0= -.10186448E+03  d E =0.379186E-05
 BRION: g(F)=  0.829E-03 g(S)=  0.000E+00 retain N=  3 mean eig= 3.69
 eig:   4.921  4.921  1.221
 bond charge predicted
       N       E                     dE             d eps       ncg     rms          rms(c)
DAV:   1    -0.101645510275E+03    0.32280E-04   -0.90761E-03    72   0.525E-01    0.202E-02
RMM:   2    -0.101645520521E+03   -0.10246E-04   -0.14082E-04    52   0.634E-02    0.131E-02
RMM:   3    -0.101645524214E+03   -0.36937E-05   -0.23968E-05    44   0.273E-02
  73 F= -.10186448E+03 E0= -.10186448E+03  d E =0.230113E-06
 BRION: g(F)=  0.807E-03 g(S)=  0.000E+00 retain N=  3 mean eig= 3.59
 eig:   4.682  4.682  1.400
 bond charge predicted
       N       E                     dE             d eps       ncg     rms          rms(c)
DAV:   1    -0.101645402083E+03    0.11844E-03   -0.63091E-02    60   0.139E+00    0.516E-02
RMM:   2    -0.101645463637E+03   -0.61554E-04   -0.90549E-04    60   0.160E-01    0.325E-02
RMM:   3    -0.101645477811E+03   -0.14174E-04   -0.15883E-04    57   0.678E-02    0.113E-02
RMM:   4    -0.101645481561E+03   -0.37500E-05   -0.27959E-05    45   0.291E-02
  74 F= -.10186450E+03 E0= -.10186450E+03  d E =-.218691E-04
 BRION: g(F)=  0.792E-03 g(S)=  0.000E+00 retain N=  3 mean eig= 5.44
 eig:   7.446  7.446  1.415
 bond charge predicted
       N       E                     dE             d eps       ncg     rms          rms(c)
DAV:   1    -0.101645422881E+03    0.54930E-04   -0.33351E-02    60   0.101E+00    0.376E-02
RMM:   2    -0.101645455785E+03   -0.32904E-04   -0.48082E-04    60   0.117E-01    0.238E-02
RMM:   3    -0.101645463394E+03   -0.76083E-05   -0.82439E-05    51   0.491E-02
  75 F= -.10186453E+03 E0= -.10186453E+03  d E =-.272969E-04
 BRION: g(F)=  0.784E-03 g(S)=  0.000E+00 retain N=  3 mean eig= 4.46
 eig:   1.092  6.138  6.138
 bond charge predicted
       N       E                     dE             d eps       ncg     rms          rms(c)
DAV:   1    -0.101645438450E+03    0.17336E-04   -0.16260E-02    60   0.708E-01    0.269E-02
RMM:   2    -0.101645454932E+03   -0.16482E-04   -0.23950E-04    59   0.833E-02    0.172E-02
RMM:   3    -0.101645459570E+03   -0.46381E-05   -0.43134E-05    49   0.357E-02
  76 F= -.10186456E+03 E0= -.10186456E+03  d E =-.274484E-04
 BRION: g(F)=  0.769E-03 g(S)=  0.000E+00 retain N=  2 mean eig= 5.86
 eig:   5.857  5.857
 bond charge predicted
       N       E                     dE             d eps       ncg     rms          rms(c)
DAV:   1    -0.101645291818E+03    0.16311E-03   -0.11214E-01    60   0.186E+00    0.693E-02
RMM:   2    -0.101645399356E+03   -0.10754E-03   -0.15932E-03    60   0.214E-01    0.435E-02
RMM:   3    -0.101645423676E+03   -0.24321E-04   -0.27903E-04    62   0.902E-02    0.151E-02
RMM:   4    -0.101645429435E+03   -0.57583E-05   -0.50422E-05    47   0.393E-02
  77 F= -.10186461E+03 E0= -.10186461E+03  d E =-.525807E-04
 BRION: g(F)=  0.755E-03 g(S)=  0.000E+00
 BRIONS problems: POTIM should be increased
 retain N=  1 mean eig=11.03
 eig:  11.035
 bond charge predicted
       N       E                     dE             d eps       ncg     rms          rms(c)
DAV:   1    -0.101645416231E+03    0.74456E-05   -0.84623E-03    60   0.511E-01    0.195E-02
RMM:   2    -0.101645425329E+03   -0.90986E-05   -0.12783E-04    53   0.604E-02    0.126E-02
RMM:   3    -0.101645428081E+03   -0.27513E-05   -0.20328E-05    42   0.252E-02
  78 F= -.10186463E+03 E0= -.10186463E+03  d E =-.213115E-04
 BRION: g(F)=  0.757E-03 g(S)=  0.000E+00 retain N=  1 mean eig= 0.65
 eig:   0.655
 bond charge predicted
       N       E                     dE             d eps       ncg     rms          rms(c)
DAV:   1    -0.101645432909E+03   -0.75793E-05   -0.92148E-06    64   0.157E-02    0.165E-03
RMM:   2    -0.101645433692E+03   -0.78302E-06   -0.69274E-07    26   0.490E-03
  79 F= -.10186464E+03 E0= -.10186464E+03  d E =-.564629E-05
 BRION: g(F)=  0.763E-03 g(S)=  0.000E+00 retain N=  2 mean eig= 1.94
 eig:   3.006  0.884
 bond charge predicted
       N       E                     dE             d eps       ncg     rms          rms(c)
DAV:   1    -0.101645399873E+03    0.33036E-04   -0.18509E-02    60   0.751E-01    0.280E-02
RMM:   2    -0.101645418941E+03   -0.19068E-04   -0.26105E-04    60   0.854E-02    0.174E-02
RMM:   3    -0.101645424443E+03   -0.55027E-05   -0.46327E-05    48   0.355E-02
  80 F= -.10186459E+03 E0= -.10186459E+03  d E =0.412652E-04
 BRION: g(F)=  0.816E-03 g(S)=  0.000E+00 retain N=  1 mean eig= 7.56
 eig:   7.561
 bond charge predicted
       N       E                     dE             d eps       ncg     rms          rms(c)
DAV:   1    -0.101644960704E+03    0.45824E-03   -0.40183E-01    60   0.350E+00    0.130E-01
RMM:   2    -0.101645385355E+03   -0.42465E-03   -0.60209E-03    61   0.397E-01    0.828E-02
RMM:   3    -0.101645431163E+03   -0.45808E-04   -0.71721E-04    61   0.156E-01    0.305E-02
RMM:   4    -0.101645447239E+03   -0.16076E-04   -0.15983E-04    60   0.722E-02    0.902E-03
RMM:   5    -0.101645451592E+03   -0.43533E-05   -0.36735E-05    47   0.320E-02
  81 F= -.10186477E+03 E0= -.10186477E+03  d E =-.176810E-03
 BRION: g(F)=  0.728E-03 g(S)=  0.000E+00
 BRIONS problems: POTIM should be increased
 retain N=  1 mean eig=11.47
 eig:  11.466
 bond charge predicted
       N       E                     dE             d eps       ncg     rms          rms(c)
DAV:   1    -0.101645442388E+03    0.48508E-05   -0.14513E-02    60   0.668E-01    0.251E-02
RMM:   2    -0.101645457026E+03   -0.14639E-04   -0.21497E-04    59   0.783E-02    0.156E-02
RMM:   3    -0.101645461167E+03   -0.41412E-05   -0.39179E-05    47   0.334E-02
  82 F= -.10186481E+03 E0= -.10186481E+03  d E =-.371102E-04
 BRION: g(F)=  0.767E-03 g(S)=  0.000E+00 retain N=  1 mean eig= 0.48
 eig:   0.483
 bond charge predicted
       N       E                     dE             d eps       ncg     rms          rms(c)
DAV:   1    -0.101645465671E+03   -0.86444E-05   -0.19988E-04    72   0.776E-02    0.344E-03
RMM:   2    -0.101645466610E+03   -0.93987E-06   -0.24957E-06    35   0.826E-03
  83 F= -.10186481E+03 E0= -.10186481E+03  d E =-.194192E-05
 BRION: g(F)=  0.677E-03 g(S)=  0.000E+00 retain N=  1 mean eig= 0.49
 eig:   0.492
 bond charge predicted
       N       E                     dE             d eps       ncg     rms          rms(c)
DAV:   1    -0.101645474831E+03   -0.91599E-05   -0.30745E-03    60   0.306E-01    0.109E-02
RMM:   2    -0.101645478351E+03   -0.35209E-05   -0.43289E-05    47   0.347E-02
  84 F= -.10186483E+03 E0= -.10186483E+03  d E =-.234279E-04
 BRION: g(F)=  0.655E-03 g(S)=  0.000E+00 retain N=  2 mean eig= 3.24
 eig:   0.582  5.898
 bond charge predicted
       N       E                     dE             d eps       ncg     rms          rms(c)
DAV:   1    -0.101645320687E+03    0.15414E-03   -0.18467E-01    60   0.239E+00    0.916E-02
RMM:   2    -0.101645491714E+03   -0.17103E-03   -0.26127E-03    60   0.272E-01    0.573E-02
RMM:   3    -0.101645531554E+03   -0.39840E-04   -0.47025E-04    62   0.115E-01    0.192E-02
RMM:   4    -0.101645539456E+03   -0.79013E-05   -0.76286E-05    52   0.494E-02
  85 F= -.10186499E+03 E0= -.10186499E+03  d E =-.152209E-03
 BRION: g(F)=  0.639E-03 g(S)=  0.000E+00 retain N=  2 mean eig= 6.36
 eig:   6.359  6.359
 bond charge predicted
       N       E                     dE             d eps       ncg     rms          rms(c)
DAV:   1    -0.101645549425E+03   -0.17871E-04   -0.27317E-02    60   0.919E-01    0.346E-02
RMM:   2    -0.101645577041E+03   -0.27616E-04   -0.40363E-04    60   0.107E-01    0.221E-02
RMM:   3    -0.101645583992E+03   -0.69505E-05   -0.72719E-05    49   0.449E-02
  86 F= -.10186506E+03 E0= -.10186506E+03  d E =-.763461E-04
 BRION: g(F)=  0.645E-03 g(S)=  0.000E+00 retain N=  3 mean eig= 5.61
 eig:   7.962  7.962  0.910
 bond charge predicted
       N       E                     dE             d eps       ncg     rms          rms(c)
DAV:   1    -0.101645448194E+03    0.12885E-03   -0.17035E-01    60   0.229E+00    0.862E-02
RMM:   2    -0.101645611668E+03   -0.16347E-03   -0.24172E-03    60   0.263E-01    0.540E-02
RMM:   3    -0.101645649893E+03   -0.38225E-04   -0.43764E-04    62   0.111E-01    0.188E-02
RMM:   4    -0.101645657931E+03   -0.80380E-05   -0.72960E-05    51   0.482E-02
  87 F= -.10186522E+03 E0= -.10186522E+03  d E =-.157385E-03
 BRION: g(F)=  0.589E-03 g(S)=  0.000E+00 retain N=  1 mean eig= 5.22
 eig:   5.223
 bond charge predicted
       N       E                     dE             d eps       ncg     rms          rms(c)
DAV:   1    -0.101645713515E+03   -0.63622E-04   -0.91889E-04    72   0.171E-01    0.729E-03
RMM:   2    -0.101645715586E+03   -0.20714E-05   -0.16920E-05    41   0.221E-02
  88 F= -.10186528E+03 E0= -.10186528E+03  d E =-.570290E-04
 BRION: g(F)=  0.608E-03 g(S)=  0.000E+00 retain N=  2 mean eig= 3.03
 eig:   5.650  0.411
 bond charge predicted
       N       E                     dE             d eps       ncg     rms          rms(c)
DAV:   1    -0.101645725347E+03   -0.11832E-04   -0.10906E-04    74   0.570E-02    0.218E-03
RMM:   2    -0.101645726564E+03   -0.12174E-05   -0.10275E-06    30   0.588E-03
  89 F= -.10186528E+03 E0= -.10186528E+03  d E =-.789599E-05
 BRION: g(F)=  0.605E-03 g(S)=  0.000E+00 retain N=  3 mean eig= 2.28
 eig:   3.117  3.117  0.608
 bond charge predicted
       N       E                     dE             d eps       ncg     rms          rms(c)
DAV:   1    -0.101645636877E+03    0.88470E-04   -0.96553E-03    60   0.544E-01    0.203E-02
RMM:   2    -0.101645645901E+03   -0.90244E-05   -0.13109E-04    52   0.615E-02    0.127E-02
RMM:   3    -0.101645648615E+03   -0.27140E-05   -0.21537E-05    42   0.256E-02
  90 F= -.10186524E+03 E0= -.10186524E+03  d E =0.465060E-04
 BRION: g(F)=  0.619E-03 g(S)=  0.000E+00 retain N=  3 mean eig= 1.30
 eig:   0.893  1.105  1.892
 bond charge predicted
       N       E                     dE             d eps       ncg     rms          rms(c)
DAV:   1    -0.101645588381E+03    0.57520E-04   -0.20394E-04    72   0.768E-02    0.347E-03
RMM:   2    -0.101645589050E+03   -0.66958E-06   -0.27882E-06    35   0.910E-03
  91 F= -.10186519E+03 E0= -.10186519E+03  d E =0.508498E-04
 BRION: g(F)=  0.639E-03 g(S)=  0.000E+00 retain N=  4 mean eig= 2.32
 eig:   2.582  2.582  1.102  3.013
 bond charge predicted
       N       E                     dE             d eps       ncg     rms          rms(c)
DAV:   1    -0.101646009583E+03   -0.42120E-03   -0.41797E-02    60   0.112E+00    0.428E-02
RMM:   2    -0.101646039729E+03   -0.30145E-04   -0.52859E-04    60   0.125E-01    0.267E-02
RMM:   3    -0.101646046378E+03   -0.66495E-05   -0.85462E-05    52   0.541E-02
  92 F= -.10186555E+03 E0= -.10186555E+03  d E =-.359975E-03
 BRION: g(F)=  0.634E-03 g(S)=  0.000E+00 retain N=  2 mean eig= 3.34
 eig:   0.594  6.079
 bond charge predicted
       N       E                     dE             d eps       ncg     rms          rms(c)
DAV:   1    -0.101646758689E+03   -0.71896E-03   -0.33670E-02    66   0.982E-01    0.388E-02
RMM:   2    -0.101646775699E+03   -0.17010E-04   -0.39241E-04    60   0.109E-01    0.248E-02
RMM:   3    -0.101646781167E+03   -0.54685E-05   -0.81547E-05    56   0.506E-02
  93 F= -.10186617E+03 E0= -.10186617E+03  d E =-.618825E-03
 BRION: g(F)=  0.578E-03 g(S)=  0.000E+00 retain N=  3 mean eig= 2.40
 eig:   5.600  0.349  1.242
 bond charge predicted
       N       E                     dE             d eps       ncg     rms          rms(c)
DAV:   1    -0.101647265056E+03   -0.48936E-03   -0.21260E-02    72   0.790E-01    0.311E-02
RMM:   2    -0.101647279078E+03   -0.14022E-04   -0.27299E-04    60   0.908E-02    0.199E-02
RMM:   3    -0.101647283130E+03   -0.40513E-05   -0.51491E-05    48   0.414E-02
  94 F= -.10186658E+03 E0= -.10186658E+03  d E =-.414399E-03
 BRION: g(F)=  0.501E-03 g(S)=  0.000E+00 retain N=  3 mean eig= 2.76
 eig:   1.893  3.197  3.197
 bond charge predicted
       N       E                     dE             d eps       ncg     rms          rms(c)
DAV:   1    -0.101648061930E+03   -0.78285E-03   -0.32725E-02    72   0.962E-01    0.382E-02
RMM:   2    -0.101648076370E+03   -0.14440E-04   -0.37239E-04    60   0.105E-01    0.243E-02
RMM:   3    -0.101648081280E+03   -0.49093E-05   -0.86327E-05    55   0.504E-02
  95 F= -.10186726E+03 E0= -.10186726E+03  d E =-.677234E-03
 BRION: g(F)=  0.468E-03 g(S)=  0.000E+00 retain N=  3 mean eig= 5.10
 eig:   1.545  6.884  6.884
 bond charge predicted
       N       E                     dE             d eps       ncg     rms          rms(c)
DAV:   1    -0.101648541598E+03   -0.46523E-03   -0.10329E-02    72   0.544E-01    0.221E-02
RMM:   2    -0.101648547737E+03   -0.61384E-05   -0.13163E-04    56   0.624E-02    0.143E-02
RMM:   3    -0.101648550343E+03   -0.26058E-05   -0.28769E-05    45   0.299E-02
  96 F= -.10186766E+03 E0= -.10186766E+03  d E =-.399575E-03
 BRION: g(F)=  0.461E-03 g(S)=  0.000E+00 retain N=  3 mean eig= 3.16
 eig:   1.416  4.028  4.028
 bond charge predicted
       N       E                     dE             d eps       ncg     rms          rms(c)
DAV:   1    -0.101648814649E+03   -0.26691E-03   -0.32659E-03    72   0.317E-01    0.129E-02
RMM:   2    -0.101648817161E+03   -0.25126E-05   -0.45623E-05    47   0.386E-02
  97 F= -.10186789E+03 E0= -.10186789E+03  d E =-.232384E-03
 BRION: g(F)=  0.447E-03 g(S)=  0.000E+00 retain N=  3 mean eig= 4.83
 eig:   6.977  6.977  0.537
 bond charge predicted
       N       E                     dE             d eps       ncg     rms          rms(c)
DAV:   1    -0.101649331997E+03   -0.51735E-03   -0.12404E-02    60   0.627E-01    0.254E-02
RMM:   2    -0.101649338768E+03   -0.67707E-05   -0.15669E-04    60   0.718E-02    0.160E-02
RMM:   3    -0.101649341522E+03   -0.27544E-05   -0.35595E-05    44   0.334E-02
  98 F= -.10186835E+03 E0= -.10186835E+03  d E =-.456809E-03
 BRION: g(F)=  0.443E-03 g(S)=  0.000E+00 retain N=  3 mean eig= 3.23
 eig:   4.201  4.201  1.281
 bond charge predicted
       N       E                     dE             d eps       ncg     rms          rms(c)
DAV:   1    -0.101649660825E+03   -0.32206E-03   -0.46870E-03    66   0.380E-01    0.157E-02
RMM:   2    -0.101649663829E+03   -0.30037E-05   -0.63709E-05    50   0.460E-02
  99 F= -.10186863E+03 E0= -.10186863E+03  d E =-.279133E-03
 BRION: g(F)=  0.442E-03 g(S)=  0.000E+00 retain N=  3 mean eig= 2.13
 eig:   2.806  2.806  0.778
 bond charge predicted
       N       E                     dE             d eps       ncg     rms          rms(c)
DAV:   1    -0.101650070752E+03   -0.40993E-03   -0.84334E-03    60   0.524E-01    0.216E-02
RMM:   2    -0.101650075991E+03   -0.52385E-05   -0.11218E-04    56   0.609E-02    0.136E-02
RMM:   3    -0.101650078138E+03   -0.21475E-05   -0.24646E-05    43   0.278E-02
 100 F= -.10186899E+03 E0= -.10186899E+03  d E =-.362122E-03
 BRION: g(F)=  0.433E-03 g(S)=  0.000E+00
 BRIONS problems: POTIM should be increased
 retain N=  1 mean eig=10.85
 eig:  10.847
 bond charge predicted
       N       E                     dE             d eps       ncg     rms          rms(c)
DAV:   1    -0.101650794392E+03   -0.71840E-03   -0.28959E-02    60   0.966E-01    0.385E-02
RMM:   2    -0.101650812811E+03   -0.18419E-04   -0.37626E-04    60   0.112E-01    0.241E-02
RMM:   3    -0.101650818389E+03   -0.55776E-05   -0.81296E-05    60   0.508E-02
 101 F= -.10186963E+03 E0= -.10186963E+03  d E =-.645855E-03
 BRION: g(F)=  0.427E-03 g(S)=  0.000E+00
 BRIONS problems: POTIM should be increased
 retain N=  1 mean eig= 9.70
 eig:   9.698
 bond charge predicted
       N       E                     dE             d eps       ncg     rms          rms(c)
DAV:   1    -0.101650934630E+03   -0.12182E-03   -0.88551E-04    72   0.173E-01    0.809E-03
RMM:   2    -0.101650935893E+03   -0.12629E-05   -0.17099E-05    41   0.239E-02
 102 F= -.10186974E+03 E0= -.10186974E+03  d E =-.103460E-03
 BRION: g(F)=  0.431E-03 g(S)=  0.000E+00 retain N=  1 mean eig= 0.33
 eig:   0.331
 bond charge predicted
       N       E                     dE             d eps       ncg     rms          rms(c)
DAV:   1    -0.101650976390E+03   -0.41760E-04   -0.10109E-04    74   0.591E-02    0.325E-03
RMM:   2    -0.101650976647E+03   -0.25668E-06   -0.17688E-06    31   0.777E-03
 103 F= -.10186977E+03 E0= -.10186977E+03  d E =-.359793E-04
 BRION: g(F)=  0.434E-03 g(S)=  0.000E+00 retain N=  2 mean eig= 4.16
 eig:   0.657  7.656
 bond charge predicted
       N       E                     dE             d eps       ncg     rms          rms(c)
DAV:   1    -0.101650346365E+03    0.63002E-03   -0.25488E-02    60   0.916E-01    0.360E-02
RMM:   2    -0.101650365562E+03   -0.19197E-04   -0.33572E-04    60   0.104E-01    0.223E-02
RMM:   3    -0.101650371654E+03   -0.60917E-05   -0.68524E-05    53   0.453E-02
 104 F= -.10186924E+03 E0= -.10186924E+03  d E =0.534088E-03
 BRION: g(F)=  0.482E-03 g(S)=  0.000E+00 retain N=  1 mean eig= 7.81
 eig:   7.805
 bond charge predicted
       N       E                     dE             d eps       ncg     rms          rms(c)
DAV:   1    -0.101651779726E+03   -0.14142E-02   -0.17766E-01    60   0.242E+00    0.952E-02
RMM:   2    -0.101651907316E+03   -0.12759E-03   -0.23087E-03    60   0.272E-01    0.584E-02
RMM:   3    -0.101651939522E+03   -0.32206E-04   -0.46561E-04    61   0.118E-01    0.148E-02
RMM:   4    -0.101651948077E+03   -0.85543E-05   -0.80526E-05    58   0.512E-02
 105 F= -.10187063E+03 E0= -.10187063E+03  d E =-.138929E-02
 BRION: g(F)=  0.413E-03 g(S)=  0.000E+00
 BRIONS problems: POTIM should be increased
 retain N=  1 mean eig=20.53
 eig:  20.527
 bond charge predicted
       N       E                     dE             d eps       ncg     rms          rms(c)
DAV:   1    -0.101652957342E+03   -0.10178E-02   -0.96352E-02    60   0.178E+00    0.708E-02
RMM:   2    -0.101653033832E+03   -0.76490E-04   -0.13287E-03    60   0.206E-01    0.442E-02
RMM:   3    -0.101653054118E+03   -0.20286E-04   -0.26932E-04    61   0.906E-02    0.113E-02
RMM:   4    -0.101653059966E+03   -0.58480E-05   -0.50882E-05    50   0.396E-02
 106 F= -.10187160E+03 E0= -.10187160E+03  d E =-.976053E-03
 BRION: g(F)=  0.458E-03 g(S)=  0.000E+00 retain N=  1 mean eig= 1.00
 eig:   1.001
 bond charge predicted
       N       E                     dE             d eps       ncg     rms          rms(c)
DAV:   1    -0.101652456089E+03    0.59803E-03   -0.25311E-02    66   0.912E-01    0.359E-02
RMM:   2    -0.101652474589E+03   -0.18500E-04   -0.31648E-04    60   0.101E-01    0.220E-02
RMM:   3    -0.101652481476E+03   -0.68873E-05   -0.63821E-05    53   0.436E-02
 107 F= -.10187110E+03 E0= -.10187110E+03  d E =0.505988E-03
 BRION: g(F)=  0.418E-03 g(S)=  0.000E+00 retain N=  1 mean eig= 1.67
 eig:   1.667
 bond charge predicted
       N       E                     dE             d eps       ncg     rms          rms(c)
DAV:   1    -0.101652754983E+03   -0.28039E-03   -0.65984E-03    66   0.464E-01    0.180E-02
RMM:   2    -0.101652759534E+03   -0.45510E-05   -0.81084E-05    53   0.498E-02
 108 F= -.10187134E+03 E0= -.10187134E+03  d E =-.245480E-03
 BRION: g(F)=  0.386E-03 g(S)=  0.000E+00 retain N=  2 mean eig= 4.35
 eig:   4.353  4.353
 reached required accuracy - stopping structural energy minimisation
