<?xml version="1.0" encoding="ISO-8859-1"?>
<modeling>
 <generator>
  <i name="program" type="string">vasp </i>
  <i name="version" type="string">6.3.2  </i>
  <i name="subversion" type="string">27Jun22 (build Oct 05 2023 17:59:42) gamma-only                       parallel </i>
  <i name="platform" type="string">LinuxIFC </i>
  <i name="date" type="string">2024 04 05 </i>
  <i name="time" type="string">18:28:44 </i>
 </generator>
 <incar>
  <i type="string" name="PREC">NORMAL</i>
  <i type="string" name="ALGO">Fast</i>
  <i type="int" name="ISPIN">     1</i>
  <i type="int" name="IBRION">     1</i>
  <i name="EDIFF">      0.00001000</i>
  <i name="EDIFFG">     -0.05000000</i>
  <i type="int" name="NSW">  5000</i>
  <i name="ENCUT">    400.00000000</i>
  <i name="POTIM">      0.10000000</i>
  <i type="int" name="ISMEAR">     0</i>
  <i name="SIGMA">      0.05000000</i>
  <i type="logical" name="LWAVE"> F  </i>
  <i type="logical" name="LCHARG"> F  </i>
  <i type="string" name="GGA">PE</i>
  <i type="int" name="IVDW">    11</i>
  <i name="SPRING">     -5.00000000</i>
 </incar>
 <primitive_cell>
  <structure name="primitive_cell" >
   <crystal>
    <varray name="basis" >
     <v>      15.40225029       0.00000000       0.00000000 </v>
     <v>       0.00000000      15.40225029       0.00000000 </v>
     <v>       0.00000000       0.00000000      15.40225029 </v>
    </varray>
    <i name="volume">   3653.86527022 </i>
    <varray name="rec_basis" >
     <v>       0.06492558       0.00000000       0.00000000 </v>
     <v>       0.00000000       0.06492558       0.00000000 </v>
     <v>       0.00000000       0.00000000       0.06492558 </v>
    </varray>
   </crystal>
   <varray name="positions" >
    <v>       0.33782948       0.43810085       0.57665457 </v>
    <v>       0.33340781       0.53210180       0.57872688 </v>
    <v>       0.40252703       0.58488531       0.57120636 </v>
    <v>       0.41177284       0.39244298       0.56734058 </v>
    <v>       0.45894874       0.44064255       0.40718604 </v>
    <v>       0.45687514       0.52794742       0.40827741 </v>
    <v>       0.53295084       0.57963934       0.41199132 </v>
    <v>       0.27565250       0.40429616       0.57618128 </v>
    <v>       0.47385715       0.42571837       0.56847252 </v>
    <v>       0.41285634       0.32248202       0.55816099 </v>
    <v>       0.26854855       0.56015721       0.57967705 </v>
    <v>       0.46820580       0.55909915       0.56868294 </v>
    <v>       0.39699014       0.65498417       0.56540109 </v>
    <v>       0.39966891       0.40306684       0.40548565 </v>
    <v>       0.51984955       0.40528898       0.40865583 </v>
    <v>       0.39608342       0.56345126       0.40874351 </v>
    <v>       0.59463749       0.62378969       0.41604391 </v>
   </varray>
  </structure>
  <varray name="primitive_index" >
   <v type="int" >        1 </v>
   <v type="int" >        2 </v>
   <v type="int" >        3 </v>
   <v type="int" >        4 </v>
   <v type="int" >        5 </v>
   <v type="int" >        6 </v>
   <v type="int" >        7 </v>
   <v type="int" >        8 </v>
   <v type="int" >        9 </v>
   <v type="int" >       10 </v>
   <v type="int" >       11 </v>
   <v type="int" >       12 </v>
   <v type="int" >       13 </v>
   <v type="int" >       14 </v>
   <v type="int" >       15 </v>
   <v type="int" >       16 </v>
   <v type="int" >       17 </v>
  </varray>
 </primitive_cell>
 <kpoints>
  <generation param="Monkhorst-Pack">
   <v type="int" name="divisions">       1        1        1 </v>
   <v name="usershift">      0.00000000       0.00000000       0.00000000 </v>
   <v name="genvec1">      1.00000000       0.00000000       0.00000000 </v>
   <v name="genvec2">      0.00000000       1.00000000       0.00000000 </v>
   <v name="genvec3">      0.00000000       0.00000000       1.00000000 </v>
   <v name="shift">      0.00000000       0.00000000       0.00000000 </v>
  </generation>
  <varray name="kpointlist" >
   <v>       0.00000000       0.00000000       0.00000000 </v>
  </varray>
  <varray name="weights" >
   <v>       1.00000000 </v>
  </varray>
 </kpoints>
 <parameters>
  <separator name="general" >
   <i type="string" name="SYSTEM">unknown system</i>
   <i type="logical" name="LCOMPAT"> F  </i>
  </separator>
  <separator name="electronic" >
   <i type="string" name="PREC">normal</i>
   <i name="ENMAX">    400.00000000</i>
   <i name="ENAUG">    644.87300000</i>
   <i name="EDIFF">      0.00001000</i>
   <i type="int" name="IALGO">    68</i>
   <i type="int" name="IWAVPR">    11</i>
   <i type="int" name="NBANDS">    30</i>
   <i type="int" name="NBANDSLOW">    -1</i>
   <i type="int" name="NBANDSHIGH">    -1</i>
   <i name="NELECT">     42.00000000</i>
   <i type="int" name="TURBO">     0</i>
   <i type="int" name="IRESTART">     0</i>
   <i type="int" name="NREBOOT">     0</i>
   <i type="int" name="NMIN">     0</i>
   <i name="EREF">      0.00000000</i>
   <separator name="electronic smearing" >
    <i type="int" name="ISMEAR">     0</i>
    <i name="SIGMA">      0.05000000</i>
    <i name="KSPACING">      0.50000000</i>
    <i type="logical" name="KGAMMA"> T  </i>
    <i type="logical" name="KBLOWUP"> T  </i>
   </separator>
   <separator name="electronic projectors" >
    <i type="logical" name="LREAL"> F  </i>
    <v name="ROPT">      0.00000000      0.00000000      0.00000000</v>
    <i type="int" name="LMAXPAW">  -100</i>
    <i type="int" name="LMAXMIX">     2</i>
    <i type="logical" name="NLSPLINE"> F  </i>
   </separator>
   <separator name="electronic startup" >
    <i type="int" name="ISTART">     0</i>
    <i type="int" name="ICHARG">     2</i>
    <i type="int" name="INIWAV">     1</i>
   </separator>
   <separator name="electronic spin" >
    <i type="int" name="ISPIN">     1</i>
    <i type="logical" name="LNONCOLLINEAR"> F  </i>
    <v name="MAGMOM">      1.00000000      1.00000000      1.00000000      1.00000000      1.00000000      1.00000000      1.00000000      1.00000000      1.00000000      1.00000000      1.00000000      1.00000000      1.00000000      1.00000000      1.00000000      1.00000000      1.00000000</v>
    <i name="NUPDOWN">     -1.00000000</i>
    <i type="logical" name="LSORBIT"> F  </i>
    <v name="SAXIS">      0.00000000      0.00000000      1.00000000</v>
    <i type="logical" name="LSPIRAL"> F  </i>
    <v name="QSPIRAL">      0.00000000      0.00000000      0.00000000</v>
    <i type="logical" name="LZEROZ"> F  </i>
   </separator>
   <separator name="electronic exchange-correlation" >
    <i type="logical" name="LASPH"> F  </i>
    <i type="logical" name="LMETAGGA"> F  </i>
   </separator>
   <separator name="electronic convergence" >
    <i type="int" name="NELM">    60</i>
    <i type="int" name="NELMDL">    -5</i>
    <i type="int" name="NELMIN">     2</i>
    <i name="ENINI">    400.00000000</i>
    <separator name="electronic convergence detail" >
     <i type="logical" name="LDIAG"> T  </i>
     <i type="logical" name="LSUBROT"> F  </i>
     <i name="WEIMIN">      0.00100000</i>
     <i name="EBREAK">      0.00000008</i>
     <i name="DEPER">      0.30000000</i>
     <i type="int" name="NRMM">     4</i>
     <i name="TIME">      0.40000000</i>
    </separator>
   </separator>
   <separator name="electronic mixer" >
    <i name="AMIX">      0.40000000</i>
    <i name="BMIX">      1.00000000</i>
    <i name="AMIN">      0.10000000</i>
    <i name="AMIX_MAG">      1.60000000</i>
    <i name="BMIX_MAG">      1.00000000</i>
    <separator name="electronic mixer details" >
     <i type="int" name="IMIX">     4</i>
     <i type="logical" name="MIXFIRST"> F  </i>
     <i type="int" name="MAXMIX">   -45</i>
     <i name="WC">    100.00000000</i>
     <i type="int" name="INIMIX">     1</i>
     <i type="int" name="MIXPRE">     1</i>
     <i type="int" name="MREMOVE">     5</i>
    </separator>
   </separator>
   <separator name="electronic dipolcorrection" >
    <i type="logical" name="LDIPOL"> F  </i>
    <i type="logical" name="LMONO"> F  </i>
    <i type="int" name="IDIPOL">     0</i>
    <i name="EPSILON">      1.00000000</i>
    <v name="DIPOL">   -100.00000000   -100.00000000   -100.00000000</v>
    <i name="EFIELD">      0.00000000</i>
   </separator>
  </separator>
  <separator name="grids" >
   <i type="int" name="NGX">    80</i>
   <i type="int" name="NGY">    80</i>
   <i type="int" name="NGZ">    80</i>
   <i type="int" name="NGXF">   160</i>
   <i type="int" name="NGYF">   160</i>
   <i type="int" name="NGZF">   160</i>
   <i type="logical" name="ADDGRID"> F  </i>
  </separator>
  <separator name="ionic" >
   <i type="int" name="NSW">  5000</i>
   <i type="int" name="IBRION">     1</i>
   <i type="int" name="MDALGO">     0</i>
   <i type="int" name="ISIF">     2</i>
   <i name="PSTRESS">      0.00000000</i>
   <i name="EDIFFG">     -0.05000000</i>
   <i type="int" name="NFREE">     0</i>
   <i name="POTIM">      0.10000000</i>
   <i name="SMASS">     -3.00000000</i>
   <i name="SCALEE">      1.00000000</i>
  </separator>
  <separator name="ionic md" >
   <i name="TEBEG">      0.00010000</i>
   <i name="TEEND">      0.00010000</i>
   <i type="int" name="NBLOCK">     1</i>
   <i type="int" name="KBLOCK">  5000</i>
   <i type="int" name="NPACO">   256</i>
   <i name="APACO">     10.00000000</i>
  </separator>
  <separator name="symmetry" >
   <i type="int" name="ISYM">     2</i>
   <i name="SYMPREC">      0.00001000</i>
  </separator>
  <separator name="dos" >
   <i type="int" name="LORBIT">     0</i>
   <v name="RWIGS">     -1.00000000     -1.00000000     -1.00000000</v>
   <i type="int" name="NEDOS">   301</i>
   <i name="EMIN">     10.00000000</i>
   <i name="EMAX">    -10.00000000</i>
   <i name="EFERMI">      0.00000000</i>
  </separator>
  <separator name="writing" >
   <i type="int" name="NWRITE">     2</i>
   <i type="logical" name="LWAVE"> F  </i>
   <i type="logical" name="LDOWNSAMPLE"> F  </i>
   <i type="logical" name="LCHARG"> F  </i>
   <i type="logical" name="LPARD"> F  </i>
   <i type="logical" name="LVTOT"> F  </i>
   <i type="logical" name="LVHAR"> F  </i>
   <i type="logical" name="LELF"> F  </i>
   <i type="logical" name="LOPTICS"> F  </i>
   <v name="STM">      0.00000000      0.00000000      0.00000000      0.00000000      0.00000000      0.00000000      0.00000000</v>
  </separator>
  <separator name="performance" >
   <i type="int" name="NPAR">     2</i>
   <i type="int" name="NSIM">     4</i>
   <i type="int" name="NBLK">    -1</i>
   <i type="logical" name="LPLANE"> T  </i>
   <i type="logical" name="LSCALAPACK"> T  </i>
   <i type="logical" name="LSCAAWARE"> F  </i>
   <i type="logical" name="LSCALU"> F  </i>
   <i type="logical" name="LASYNC"> F  </i>
   <i type="logical" name="LORBITALREAL"> F  </i>
  </separator>
  <separator name="miscellaneous" >
   <i type="int" name="IDIOT">     3</i>
   <i type="int" name="PHON_NSTRUCT">    -1</i>
   <i type="logical" name="LMUSIC"> F  </i>
   <v name="POMASS">     12.01100000      1.00000000     14.00100000</v>
   <v name="DARWINR">      0.00000000      0.00000000      0.00000000</v>
   <v name="DARWINV">      1.00000000      1.00000000      1.00000000</v>
   <i type="logical" name="LCORR"> T  </i>
  </separator>
  <i type="logical" name="GGA_COMPAT"> T  </i>
  <i type="logical" name="LBERRY"> F  </i>
  <i type="int" name="ICORELEVEL">     0</i>
  <i type="logical" name="LDAU"> F  </i>
  <i type="int" name="I_CONSTRAINED_M">     0</i>
  <separator name="electronic exchange-correlation" >
   <i type="string" name="GGA">PE</i>
   <i type="int" name="VOSKOWN">     0</i>
   <i type="logical" name="LHFCALC"> F  </i>
   <i type="string" name="PRECFOCK"></i>
   <i type="logical" name="LSYMGRAD"> F  </i>
   <i type="logical" name="LHFONE"> F  </i>
   <i type="logical" name="LRHFCALC"> F  </i>
   <i type="logical" name="LTHOMAS"> F  </i>
   <i type="logical" name="LMODELHF"> F  </i>
   <i type="logical" name="LFOCKACE"> F  </i>
   <i name="ENCUT4O">     -1.00000000</i>
   <i type="int" name="EXXOEP">     0</i>
   <i type="int" name="FOURORBIT">     0</i>
   <i name="AEXX">      0.00000000</i>
   <i name="HFALPHA">      0.00000000</i>
   <i name="MCALPHA">      0.00000000</i>
   <i name="ALDAX">      1.00000000</i>
   <i name="AGGAX">      1.00000000</i>
   <i name="ALDAC">      1.00000000</i>
   <i name="AGGAC">      1.00000000</i>
   <i type="int" name="NKREDX">     1</i>
   <i type="int" name="NKREDY">     1</i>
   <i type="int" name="NKREDZ">     1</i>
   <i type="logical" name="SHIFTRED"> F  </i>
   <i type="logical" name="ODDONLY"> F  </i>
   <i type="logical" name="EVENONLY"> F  </i>
   <i type="int" name="LMAXFOCK">     0</i>
   <i type="int" name="NMAXFOCKAE">     0</i>
   <i type="logical" name="LFOCKAEDFT"> F  </i>
   <i name="HFSCREEN">      0.00000000</i>
   <i name="HFSCREENC">      0.00000000</i>
   <i type="int" name="NBANDSGWLOW">     0</i>
  </separator>
  <separator name="vdW DFT" >
   <i type="logical" name="LUSE_VDW"> F  </i>
   <i name="Zab_VDW">     -0.84910000</i>
   <i name="PARAM1">      0.12340000</i>
   <i name="PARAM2">      1.00000000</i>
   <i name="PARAM3">      0.00000000</i>
  </separator>
  <separator name="model GW" >
   <i type="int" name="MODEL_GW">     0</i>
   <i name="MODEL_EPS0">    128.95995071</i>
   <i name="MODEL_ALPHA">      1.00000000</i>
  </separator>
  <separator name="linear response parameters" >
   <i type="logical" name="LEPSILON"> F  </i>
   <i type="logical" name="LRPA"> F  </i>
   <i type="logical" name="LNABLA"> F  </i>
   <i type="logical" name="LVEL"> F  </i>
   <i name="CSHIFT">      0.10000000</i>
   <i name="OMEGAMAX">     -1.00000000</i>
   <i name="DEG_THRESHOLD">      0.00200000</i>
   <i name="RTIME">     -0.10000000</i>
   <i name="WPLASMAI">      0.00000000</i>
   <v name="DFIELD">      0.00000000      0.00000000      0.00000000</v>
   <v name="WPLASMA">      0.00000000      0.00000000      0.00000000      0.00000000      0.00000000      0.00000000      0.00000000      0.00000000      0.00000000</v>
  </separator>
  <separator name="orbital magnetization" >
   <i type="logical" name="NUCIND"> F  </i>
   <v name="MAGPOS">      0.00000000      0.00000000      0.00000000</v>
   <i type="logical" name="LNICSALL"> T  </i>
   <i type="logical" name="ORBITALMAG"> F  </i>
   <i type="logical" name="LMAGBLOCH"> F  </i>
   <i type="logical" name="LCHIMAG"> F  </i>
   <i type="logical" name="LGAUGE"> T  </i>
   <i type="int" name="MAGATOM">     0</i>
   <v name="MAGDIPOL">      0.00000000      0.00000000      0.00000000</v>
   <v name="AVECCONST">      0.00000000      0.00000000      0.00000000</v>
  </separator>
  <separator name="response functions" >
   <i type="logical" name="LFINITE_TEMPERATURE"> F  </i>
   <i type="logical" name="LADDER"> F  </i>
   <i type="logical" name="LRPAFORCE"> F  </i>
   <i type="logical" name="LFXC"> F  </i>
   <i type="logical" name="LHARTREE"> T  </i>
   <i type="int" name="IBSE">     0</i>
   <v type="int" name="KPOINT">    -1     0     0     0</v>
   <i type="logical" name="LTCTC"> F  </i>
   <i type="logical" name="LTCTE"> F  </i>
   <i type="logical" name="LTETE"> F  </i>
   <i type="logical" name="LTRIPLET"> F  </i>
   <i type="logical" name="LFXCEPS"> F  </i>
   <i type="logical" name="LFXHEG"> F  </i>
   <i type="int" name="NATURALO">     2</i>
   <i type="logical" name="LHOLEGF"> F  </i>
   <i type="logical" name="L2ORDER"> F  </i>
   <i type="logical" name="LDMP1"> F  </i>
   <i type="logical" name="LMP2LT"> F  </i>
   <i type="logical" name="LSMP2LT"> F  </i>
   <i type="logical" name="LGWLF"> F  </i>
   <i name="ENCUTGW">     -2.00000000</i>
   <i name="ENCUTGWSOFT">     -2.00000000</i>
   <i name="ENCUTLF">     -1.00000000</i>
   <i type="logical" name="LESF_SPLINES"> F  </i>
   <i type="int" name="LMAXMP2">    -1</i>
   <i name="SCISSOR">      0.00000000</i>
   <i type="int" name="NOMEGA">     0</i>
   <i type="int" name="NOMEGAR">     0</i>
   <i type="int" name="NBANDSGW">    -1</i>
   <i type="int" name="NBANDSO">    -1</i>
   <i type="int" name="NBANDSV">    -1</i>
   <i type="int" name="NELMGW">     1</i>
   <i type="int" name="NELMHF">     1</i>
   <i type="int" name="DIM">     3</i>
   <i type="int" name="IESPILON">     4</i>
   <i type="int" name="ANTIRES">     0</i>
   <i name="OMEGAMAX">    -30.00000000</i>
   <i name="OMEGAMIN">    -30.00000000</i>
   <i name="OMEGATL">   -200.00000000</i>
   <i type="int" name="OMEGAGRID">     0</i>
   <i name="CSHIFT">     -0.10000000</i>
   <i type="logical" name="LSELFENERGY"> F  </i>
   <i type="logical" name="LSPECTRAL"> F  </i>
   <i type="logical" name="LSPECTRALGW"> F  </i>
   <i type="logical" name="LSINGLES"> F  </i>
   <i type="logical" name="LFERMIGW"> F  </i>
   <i type="logical" name="ODDONLYGW"> F  </i>
   <i type="logical" name="EVENONLYGW"> F  </i>
   <i type="int" name="NKREDLFX">     1</i>
   <i type="int" name="NKREDLFY">     1</i>
   <i type="int" name="NKREDLFZ">     1</i>
   <i type="int" name="MAXMEM">  2800</i>
   <i type="int" name="TELESCOPE">     0</i>
   <i type="int" name="NTAUPAR">    -1</i>
   <i type="int" name="NOMEGAPAR">    -1</i>
   <i name="DAMP_NEWTON">      0.80000001</i>
   <i name="LAMBDA">      1.00000000</i>
  </separator>
  <separator name="External order field" >
   <i name="OFIELD_KAPPA">      0.00000000</i>
   <v name="OFIELD_K">      0.00000000      0.00000000      0.00000000</v>
   <i name="OFIELD_Q6_NEAR">      0.00000000</i>
   <i name="OFIELD_Q6_FAR">      0.00000000</i>
   <i name="OFIELD_A">      0.00000000</i>
  </separator>
  <separator name="optional k-points parameters" >
   <i type="int" name="KPOINTS_OPT_MODE">     1</i>
   <i type="logical" name="LKPOINTS_OPT"> F  </i>
  </separator>
 </parameters>
 <atominfo>
  <atoms>      17 </atoms>
  <types>       3 </types>
  <array name="atoms" >
   <dimension dim="1">ion</dimension>
   <field type="string">element</field>
   <field type="int">atomtype</field>
   <set>
    <rc><c>C </c><c>   1</c></rc>
    <rc><c>C </c><c>   1</c></rc>
    <rc><c>C </c><c>   1</c></rc>
    <rc><c>C </c><c>   1</c></rc>
    <rc><c>C </c><c>   1</c></rc>
    <rc><c>C </c><c>   1</c></rc>
    <rc><c>C </c><c>   1</c></rc>
    <rc><c>H </c><c>   2</c></rc>
    <rc><c>H </c><c>   2</c></rc>
    <rc><c>H </c><c>   2</c></rc>
    <rc><c>H </c><c>   2</c></rc>
    <rc><c>H </c><c>   2</c></rc>
    <rc><c>H </c><c>   2</c></rc>
    <rc><c>H </c><c>   2</c></rc>
    <rc><c>H </c><c>   2</c></rc>
    <rc><c>H </c><c>   2</c></rc>
    <rc><c>N </c><c>   3</c></rc>
   </set>
  </array>
  <array name="atomtypes" >
   <dimension dim="1">type</dimension>
   <field type="int">atomspertype</field>
   <field type="string">element</field>
   <field>mass</field>
   <field>valence</field>
   <field type="string">pseudopotential</field>
   <set>
    <rc><c>   7</c><c>C </c><c>     12.01100000</c><c>      4.00000000</c><c>  PAW_PBE C 08Apr2002                   </c></rc>
    <rc><c>   9</c><c>H </c><c>      1.00000000</c><c>      1.00000000</c><c>  PAW_PBE H 15Jun2001                   </c></rc>
    <rc><c>   1</c><c>N </c><c>     14.00100000</c><c>      5.00000000</c><c>  PAW_PBE N 08Apr2002                   </c></rc>
   </set>
  </array>
 </atominfo>
 <structure name="initialpos" >
  <crystal>
   <varray name="basis" >
    <v>      15.40225029       0.00000000       0.00000000 </v>
    <v>       0.00000000      15.40225029       0.00000000 </v>
    <v>       0.00000000       0.00000000      15.40225029 </v>
   </varray>
   <i name="volume">   3653.86527022 </i>
   <varray name="rec_basis" >
    <v>       0.06492558       0.00000000       0.00000000 </v>
    <v>       0.00000000       0.06492558       0.00000000 </v>
    <v>       0.00000000       0.00000000       0.06492558 </v>
   </varray>
  </crystal>
  <varray name="positions" >
   <v>       0.33782948       0.43810085       0.57665457 </v>
   <v>       0.33340781       0.53210180       0.57872688 </v>
   <v>       0.40252703       0.58488531       0.57120636 </v>
   <v>       0.41177284       0.39244298       0.56734058 </v>
   <v>       0.45894874       0.44064255       0.40718604 </v>
   <v>       0.45687514       0.52794742       0.40827741 </v>
   <v>       0.53295084       0.57963934       0.41199132 </v>
   <v>       0.27565250       0.40429616       0.57618128 </v>
   <v>       0.47385715       0.42571837       0.56847252 </v>
   <v>       0.41285634       0.32248202       0.55816099 </v>
   <v>       0.26854855       0.56015721       0.57967705 </v>
   <v>       0.46820580       0.55909915       0.56868294 </v>
   <v>       0.39699014       0.65498417       0.56540109 </v>
   <v>       0.39966891       0.40306684       0.40548565 </v>
   <v>       0.51984955       0.40528898       0.40865583 </v>
   <v>       0.39608342       0.56345126       0.40874351 </v>
   <v>       0.59463749       0.62378969       0.41604391 </v>
  </varray>
 </structure>
 <calculation>
  <scstep>
   <time name="dav">    3.64    3.64</time>
   <time name="total">    5.79    5.79</time>
   <energy>
    <i name="alphaZ">      2.15216506 </i>
    <i name="ewald">   2271.50176100 </i>
    <i name="hartreedc">  -3213.85570735 </i>
    <i name="XCdc">    129.73617207 </i>
    <i name="pawpsdc">    983.79330320 </i>
    <i name="pawaedc">   -989.05002801 </i>
    <i name="eentropy">     -0.00049736 </i>
    <i name="bandstr">   -259.02655077 </i>
    <i name="atom">   1406.67326350 </i>
    <i name="e_fr_energy">    331.92388132 </i>
    <i name="e_wo_entrp">    331.92437869 </i>
    <i name="e_0_energy">    331.92413001 </i>
   </energy>
  </scstep>
  <scstep>
   <time name="dav">    3.87    3.88</time>
   <time name="total">    3.87    3.88</time>
   <energy>
    <i name="e_fr_energy">     74.81633241 </i>
    <i name="e_wo_entrp">     74.81633241 </i>
    <i name="e_0_energy">     74.81633241 </i>
   </energy>
  </scstep>
  <scstep>
   <time name="dav">    3.92    3.92</time>
   <time name="total">    3.92    3.92</time>
   <energy>
    <i name="e_fr_energy">    -90.76284712 </i>
    <i name="e_wo_entrp">    -90.76284712 </i>
    <i name="e_0_energy">    -90.76284712 </i>
   </energy>
  </scstep>
  <scstep>
   <time name="dav">    4.27    4.27</time>
   <time name="total">    4.27    4.27</time>
   <energy>
    <i name="e_fr_energy">   -112.17857279 </i>
    <i name="e_wo_entrp">   -112.17857279 </i>
    <i name="e_0_energy">   -112.17857279 </i>
   </energy>
  </scstep>
  <scstep>
   <time name="dav">    4.00    4.05</time>
   <time name="total">    4.48    4.53</time>
   <energy>
    <i name="e_fr_energy">   -112.49938969 </i>
    <i name="e_wo_entrp">   -112.49938969 </i>
    <i name="e_0_energy">   -112.49938969 </i>
   </energy>
  </scstep>
  <scstep>
   <time name="diag">    0.70    0.73</time>
   <time name="diis">    2.86    2.89</time>
   <time name="orth">    0.03    0.04</time>
   <time name="total">    6.28    6.39</time>
   <energy>
    <i name="e_fr_energy">   -103.68972696 </i>
    <i name="e_wo_entrp">   -103.68972696 </i>
    <i name="e_0_energy">   -103.68972696 </i>
   </energy>
  </scstep>
  <scstep>
   <time name="diag">    0.59    0.65</time>
   <time name="diis">    3.12    3.12</time>
   <time name="orth">    0.03    0.03</time>
   <time name="total">    6.53    6.60</time>
   <energy>
    <i name="e_fr_energy">   -101.63629087 </i>
    <i name="e_wo_entrp">   -101.63629087 </i>
    <i name="e_0_energy">   -101.63629087 </i>
   </energy>
  </scstep>
  <scstep>
   <time name="diag">    0.62    0.62</time>
   <time name="diis">    3.01    3.01</time>
   <time name="orth">    0.03    0.03</time>
   <time name="total">    6.41    6.41</time>
   <energy>
    <i name="e_fr_energy">   -101.47302249 </i>
    <i name="e_wo_entrp">   -101.47302249 </i>
    <i name="e_0_energy">   -101.47302249 </i>
   </energy>
  </scstep>
  <scstep>
   <time name="diag">    0.64    0.65</time>
   <time name="diis">    3.12    3.12</time>
   <time name="orth">    0.03    0.03</time>
   <time name="total">    6.62    6.88</time>
   <energy>
    <i name="e_fr_energy">   -101.38122022 </i>
    <i name="e_wo_entrp">   -101.38122022 </i>
    <i name="e_0_energy">   -101.38122022 </i>
   </energy>
  </scstep>
  <scstep>
   <time name="diag">    0.60    0.60</time>
   <time name="diis">    3.19    3.20</time>
   <time name="orth">    0.03    0.03</time>
   <time name="total">    6.51    6.51</time>
   <energy>
    <i name="e_fr_energy">   -101.37554283 </i>
    <i name="e_wo_entrp">   -101.37554283 </i>
    <i name="e_0_energy">   -101.37554283 </i>
   </energy>
  </scstep>
  <scstep>
   <time name="diag">    0.64    0.64</time>
   <time name="diis">    3.14    3.14</time>
   <time name="orth">    0.03    0.03</time>
   <time name="total">    6.56    6.56</time>
   <energy>
    <i name="e_fr_energy">   -101.38220742 </i>
    <i name="e_wo_entrp">   -101.38220742 </i>
    <i name="e_0_energy">   -101.38220742 </i>
   </energy>
  </scstep>
  <scstep>
   <time name="diag">    0.39    0.39</time>
   <time name="diis">    2.32    2.32</time>
   <time name="orth">    0.02    0.02</time>
   <time name="total">    5.20    5.20</time>
   <energy>
    <i name="e_fr_energy">   -101.38021218 </i>
    <i name="e_wo_entrp">   -101.38021218 </i>
    <i name="e_0_energy">   -101.38021218 </i>
   </energy>
  </scstep>
  <scstep>
   <time name="diag">    0.44    0.44</time>
   <time name="diis">    1.72    1.72</time>
   <time name="orth">    0.01    0.01</time>
   <time name="total">    4.40    4.41</time>
   <energy>
    <i name="e_fr_energy">   -101.38682870 </i>
    <i name="e_wo_entrp">   -101.38682870 </i>
    <i name="e_0_energy">   -101.38682870 </i>
   </energy>
  </scstep>
  <scstep>
   <time name="diag">    0.21    0.21</time>
   <time name="diis">    1.28    1.28</time>
   <time name="orth">    0.01    0.01</time>
   <time name="total">    2.83    2.83</time>
   <energy>
    <i name="e_fr_energy">   -101.39133790 </i>
    <i name="e_wo_entrp">   -101.39133790 </i>
    <i name="e_0_energy">   -101.39133790 </i>
   </energy>
  </scstep>
  <scstep>
   <time name="diag">    0.20    0.20</time>
   <time name="diis">    1.39    1.39</time>
   <time name="orth">    0.01    0.01</time>
   <time name="total">    2.84    2.84</time>
   <energy>
    <i name="e_fr_energy">   -101.40151646 </i>
    <i name="e_wo_entrp">   -101.40151646 </i>
    <i name="e_0_energy">   -101.40151646 </i>
   </energy>
  </scstep>
  <scstep>
   <time name="diag">    0.20    0.20</time>
   <time name="diis">    1.11    1.11</time>
   <time name="orth">    0.01    0.01</time>
   <time name="total">    2.67    2.67</time>
   <energy>
    <i name="e_fr_energy">   -101.40399824 </i>
    <i name="e_wo_entrp">   -101.40399824 </i>
    <i name="e_0_energy">   -101.40399824 </i>
   </energy>
  </scstep>
  <scstep>
   <time name="diag">    0.20    0.20</time>
   <time name="diis">    1.27    1.27</time>
   <time name="orth">    0.01    0.01</time>
   <time name="total">    2.75    2.76</time>
   <energy>
    <i name="e_fr_energy">   -101.40744784 </i>
    <i name="e_wo_entrp">   -101.40744784 </i>
    <i name="e_0_energy">   -101.40744784 </i>
   </energy>
  </scstep>
  <scstep>
   <time name="diag">    0.27    0.27</time>
   <time name="diis">    1.34    1.34</time>
   <time name="orth">    0.01    0.01</time>
   <time name="total">    2.92    2.92</time>
   <energy>
    <i name="e_fr_energy">   -101.40827547 </i>
    <i name="e_wo_entrp">   -101.40827547 </i>
    <i name="e_0_energy">   -101.40827547 </i>
   </energy>
  </scstep>
  <scstep>
   <time name="diag">    0.44    0.44</time>
   <time name="diis">    2.47    2.47</time>
   <time name="orth">    0.01    0.01</time>
   <time name="total">    4.71    4.73</time>
   <energy>
    <i name="e_fr_energy">   -101.40872472 </i>
    <i name="e_wo_entrp">   -101.40872472 </i>
    <i name="e_0_energy">   -101.40872472 </i>
   </energy>
  </scstep>
  <scstep>
   <time name="diag">    0.30    0.30</time>
   <time name="diis">    1.42    1.42</time>
   <time name="orth">    0.01    0.01</time>
   <time name="total">    3.21    3.22</time>
   <energy>
    <i name="e_fr_energy">   -101.40888467 </i>
    <i name="e_wo_entrp">   -101.40888467 </i>
    <i name="e_0_energy">   -101.40888467 </i>
   </energy>
  </scstep>
  <scstep>
   <time name="diag">    0.36    0.36</time>
   <time name="diis">    1.65    1.65</time>
   <time name="orth">    0.03    0.03</time>
   <time name="total">    3.68    3.71</time>
   <energy>
    <i name="e_fr_energy">   -101.40900317 </i>
    <i name="e_wo_entrp">   -101.40900317 </i>
    <i name="e_0_energy">   -101.40900317 </i>
   </energy>
  </scstep>
  <scstep>
   <time name="diag">    0.35    0.35</time>
   <time name="diis">    1.32    1.32</time>
   <time name="orth">    0.01    0.01</time>
   <time name="total">    3.36    3.36</time>
   <energy>
    <i name="e_fr_energy">   -101.40904665 </i>
    <i name="e_wo_entrp">   -101.40904665 </i>
    <i name="e_0_energy">   -101.40904665 </i>
   </energy>
  </scstep>
  <scstep>
   <time name="diag">    0.32    0.32</time>
   <time name="diis">    0.91    0.91</time>
   <time name="orth">    0.02    0.02</time>
   <time name="total">    3.19    3.19</time>
   <energy>
    <i name="e_fr_energy">   -101.40906166 </i>
    <i name="e_wo_entrp">   -101.40906166 </i>
    <i name="e_0_energy">   -101.40906166 </i>
   </energy>
  </scstep>
  <scstep>
   <time name="diag">    0.26    0.26</time>
   <time name="diis">    0.77    0.77</time>
   <time name="orth">    0.01    0.01</time>
   <time name="total">    2.69    2.69</time>
   <energy>
    <i name="e_fr_energy">   -101.40907226 </i>
    <i name="e_wo_entrp">   -101.40907226 </i>
    <i name="e_0_energy">   -101.40907226 </i>
   </energy>
  </scstep>
  <scstep>
   <time name="diag">    0.14    0.14</time>
   <time name="diis">    0.45    0.45</time>
   <time name="orth">    0.01    0.01</time>
   <time name="total">    1.30    1.32</time>
   <energy>
    <i name="alphaZ">      2.15216506 </i>
    <i name="ewald">   2271.50176100 </i>
    <i name="hartreedc">  -3401.60441006 </i>
    <i name="XCdc">    139.33030002 </i>
    <i name="pawpsdc">   3511.23571779 </i>
    <i name="pawaedc">  -3517.60124029 </i>
    <i name="eentropy">     -0.00000000 </i>
    <i name="bandstr">   -513.09663166 </i>
    <i name="atom">   1406.67326350 </i>
    <i name="e_fr_energy">   -101.40907464 </i>
    <i name="e_wo_entrp">   -101.40907464 </i>
    <i name="e_0_energy">   -101.40907464 </i>
   </energy>
  </scstep>
  <structure>
   <crystal>
    <varray name="basis" >
     <v>      15.40225029       0.00000000       0.00000000 </v>
     <v>       0.00000000      15.40225029       0.00000000 </v>
     <v>       0.00000000       0.00000000      15.40225029 </v>
    </varray>
    <i name="volume">   3653.86527022 </i>
    <varray name="rec_basis" >
     <v>       0.06492558       0.00000000       0.00000000 </v>
     <v>       0.00000000       0.06492558       0.00000000 </v>
     <v>       0.00000000       0.00000000       0.06492558 </v>
    </varray>
   </crystal>
   <varray name="positions" >
    <v>       0.33782948       0.43810085       0.57665457 </v>
    <v>       0.33340781       0.53210180       0.57872688 </v>
    <v>       0.40252703       0.58488531       0.57120636 </v>
    <v>       0.41177284       0.39244298       0.56734058 </v>
    <v>       0.45894874       0.44064255       0.40718604 </v>
    <v>       0.45687514       0.52794742       0.40827741 </v>
    <v>       0.53295084       0.57963934       0.41199132 </v>
    <v>       0.27565250       0.40429616       0.57618128 </v>
    <v>       0.47385715       0.42571837       0.56847252 </v>
    <v>       0.41285634       0.32248202       0.55816099 </v>
    <v>       0.26854855       0.56015721       0.57967705 </v>
    <v>       0.46820580       0.55909915       0.56868294 </v>
    <v>       0.39699014       0.65498417       0.56540109 </v>
    <v>       0.39966891       0.40306684       0.40548565 </v>
    <v>       0.51984955       0.40528898       0.40865583 </v>
    <v>       0.39608342       0.56345126       0.40874351 </v>
    <v>       0.59463749       0.62378969       0.41604391 </v>
   </varray>
  </structure>
  <varray name="forces" >
   <v>      -0.11024263      -0.03662641       0.01009868 </v>
   <v>      -0.02984406      -0.01697565       0.00415401 </v>
   <v>       0.08259360       0.12216286       0.09872936 </v>
   <v>      -0.02928745      -0.05706362       0.14852789 </v>
   <v>      -0.02781127      -0.00290522      -0.11911829 </v>
   <v>       0.10520063       0.02844744      -0.25559821 </v>
   <v>       0.07109416       0.03704065      -0.06929255 </v>
   <v>      -0.09820960      -0.13048010       0.03678019 </v>
   <v>       0.24599446      -0.10544185       0.13339633 </v>
   <v>      -0.04902736      -0.12339851       0.13429047 </v>
   <v>      -0.16441090       0.11225594       0.08640450 </v>
   <v>       0.10764785       0.06397007       0.18834357 </v>
   <v>      -0.09902617       0.13371541       0.10136789 </v>
   <v>      -0.14370224      -0.06433964      -0.25327267 </v>
   <v>       0.18656105      -0.09952564      -0.03634144 </v>
   <v>      -0.17312049       0.06101230      -0.21392182 </v>
   <v>       0.12559040       0.07815198       0.00545209 </v>
  </varray>
  <varray name="stress" >
   <v>       0.05744076       0.06288185      -0.16915170 </v>
   <v>       0.06288185       0.03470660      -0.02345075 </v>
   <v>      -0.16915171      -0.02345075       0.10502062 </v>
  </varray>
  <energy>
   <i name="e_fr_energy">   -101.64037992 </i>
   <i name="e_wo_entrp">   -101.64037992 </i>
   <i name="e_0_energy">   -101.64037992 </i>
  </energy>
  <time name="totalsc">  126.12  126.73</time>
 </calculation>
 <calculation>
  <scstep>
   <time name="dav">    3.10    3.10</time>
   <time name="total">    5.69    5.69</time>
   <energy>
    <i name="alphaZ">      2.15216506 </i>
    <i name="ewald">   2265.41612592 </i>
    <i name="hartreedc">  -3396.07784058 </i>
    <i name="XCdc">    139.28353023 </i>
    <i name="pawpsdc">   3511.23069300 </i>
    <i name="pawaedc">  -3517.59616456 </i>
    <i name="eentropy">     -0.00000000 </i>
    <i name="bandstr">   -512.50045788 </i>
    <i name="atom">   1406.67326350 </i>
    <i name="e_fr_energy">   -101.41868532 </i>
    <i name="e_wo_entrp">   -101.41868532 </i>
    <i name="e_0_energy">   -101.41868532 </i>
   </energy>
  </scstep>
  <scstep>
   <time name="diag">    0.57    0.57</time>
   <time name="diis">    2.86    2.86</time>
   <time name="orth">    0.02    0.02</time>
   <time name="total">    5.73    5.73</time>
   <energy>
    <i name="e_fr_energy">   -101.41955102 </i>
    <i name="e_wo_entrp">   -101.41955102 </i>
    <i name="e_0_energy">   -101.41955102 </i>
   </energy>
  </scstep>
  <scstep>
   <time name="diag">    0.36    0.36</time>
   <time name="diis">    2.91    2.91</time>
   <time name="orth">    0.02    0.02</time>
   <time name="total">    5.07    5.08</time>
   <energy>
    <i name="e_fr_energy">   -101.41961248 </i>
    <i name="e_wo_entrp">   -101.41961248 </i>
    <i name="e_0_energy">   -101.41961248 </i>
   </energy>
  </scstep>
  <scstep>
   <time name="diag">    0.53    0.53</time>
   <time name="diis">    2.92    2.92</time>
   <time name="orth">    0.01    0.02</time>
   <time name="total">    5.63    5.64</time>
   <energy>
    <i name="e_fr_energy">   -101.41967750 </i>
    <i name="e_wo_entrp">   -101.41967750 </i>
    <i name="e_0_energy">   -101.41967750 </i>
   </energy>
  </scstep>
  <scstep>
   <time name="diag">    0.45    0.45</time>
   <time name="diis">    2.34    2.34</time>
   <time name="orth">    0.01    0.01</time>
   <time name="total">    4.68    4.68</time>
   <energy>
    <i name="e_fr_energy">   -101.41969060 </i>
    <i name="e_wo_entrp">   -101.41969060 </i>
    <i name="e_0_energy">   -101.41969060 </i>
   </energy>
  </scstep>
  <scstep>
   <time name="diag">    0.16    0.16</time>
   <time name="diis">    0.69    0.69</time>
   <time name="orth">    0.01    0.01</time>
   <time name="total">    1.74    1.74</time>
   <energy>
    <i name="alphaZ">      2.15216506 </i>
    <i name="ewald">   2265.41612592 </i>
    <i name="hartreedc">  -3395.67022122 </i>
    <i name="XCdc">    139.26645621 </i>
    <i name="pawpsdc">   3502.88628814 </i>
    <i name="pawaedc">  -3509.24677385 </i>
    <i name="eentropy">     -0.00000000 </i>
    <i name="bandstr">   -512.89699877 </i>
    <i name="atom">   1406.67326350 </i>
    <i name="e_fr_energy">   -101.41969502 </i>
    <i name="e_wo_entrp">   -101.41969502 </i>
    <i name="e_0_energy">   -101.41969502 </i>
   </energy>
  </scstep>
  <structure>
   <crystal>
    <varray name="basis" >
     <v>      15.40225029       0.00000000       0.00000000 </v>
     <v>       0.00000000      15.40225029       0.00000000 </v>
     <v>       0.00000000       0.00000000      15.40225029 </v>
    </varray>
    <i name="volume">   3653.86527022 </i>
    <varray name="rec_basis" >
     <v>       0.06492558       0.00000000       0.00000000 </v>
     <v>       0.00000000       0.06492558       0.00000000 </v>
     <v>       0.00000000       0.00000000       0.06492558 </v>
    </varray>
   </crystal>
   <varray name="positions" >
    <v>       0.33766900       0.43808061       0.57672937 </v>
    <v>       0.33333619       0.53215551       0.57885105 </v>
    <v>       0.40248945       0.58501933       0.57143942 </v>
    <v>       0.41158036       0.39232705       0.56761075 </v>
    <v>       0.45911909       0.44062061       0.40661755 </v>
    <v>       0.45704831       0.52788787       0.40773334 </v>
    <v>       0.53302989       0.57970441       0.41164329 </v>
    <v>       0.27546026       0.40428188       0.57631679 </v>
    <v>       0.47386879       0.42561617       0.56836188 </v>
    <v>       0.41260579       0.32231775       0.55845197 </v>
    <v>       0.26837501       0.56026736       0.57998633 </v>
    <v>       0.46818742       0.55911116       0.56857537 </v>
    <v>       0.39688413       0.65513319       0.56568172 </v>
    <v>       0.39971768       0.40295782       0.40528139 </v>
    <v>       0.52013907       0.40518100       0.40820601 </v>
    <v>       0.39601429       0.56341161       0.40868113 </v>
    <v>       0.59465841       0.62401426       0.41580438 </v>
   </varray>
  </structure>
  <varray name="forces" >
   <v>      -0.09119273      -0.02721074       0.01538784 </v>
   <v>      -0.04146587       0.02564608       0.00234375 </v>
   <v>       0.05849528       0.06368093       0.08316569 </v>
   <v>       0.03593018      -0.02924710       0.12446899 </v>
   <v>      -0.01503732      -0.08867141      -0.10477164 </v>
   <v>       0.00111726       0.09417017      -0.22627844 </v>
   <v>       0.14048749       0.08415955      -0.07411455 </v>
   <v>      -0.08849347      -0.11952957       0.03778421 </v>
   <v>       0.16147074      -0.14462084       0.13773433 </v>
   <v>      -0.05021757      -0.10098854       0.13862706 </v>
   <v>      -0.10841069       0.08937461       0.08217836 </v>
   <v>       0.07572779       0.08405085       0.19083206 </v>
   <v>      -0.09362914       0.12321833       0.10681983 </v>
   <v>      -0.08226926      -0.02555086      -0.25123349 </v>
   <v>       0.12003518      -0.06178233      -0.04636645 </v>
   <v>      -0.07518585       0.00775712      -0.22013323 </v>
   <v>       0.05263798       0.02554376       0.00355568 </v>
  </varray>
  <varray name="stress" >
   <v>      -0.17760756       0.04163607      -0.16870236 </v>
   <v>       0.04163607      -0.08369465      -0.02383378 </v>
   <v>      -0.16870236      -0.02383378       0.08306402 </v>
  </varray>
  <energy>
   <i name="e_fr_energy">   -101.65082611 </i>
   <i name="e_wo_entrp">   -101.65082611 </i>
   <i name="e_0_energy">   -101.65082611 </i>
  </energy>
  <time name="totalsc">   36.96   36.99</time>
 </calculation>
 <calculation>
  <scstep>
   <time name="dav">    3.11    3.11</time>
   <time name="total">    5.63    5.63</time>
   <energy>
    <i name="alphaZ">      2.15216506 </i>
    <i name="ewald">   2257.16945698 </i>
    <i name="hartreedc">  -3387.95777948 </i>
    <i name="XCdc">    139.21212122 </i>
    <i name="pawpsdc">   3503.05102345 </i>
    <i name="pawaedc">  -3509.41141597 </i>
    <i name="eentropy">     -0.00000000 </i>
    <i name="bandstr">   -512.32029714 </i>
    <i name="atom">   1406.67326350 </i>
    <i name="e_fr_energy">   -101.43146240 </i>
    <i name="e_wo_entrp">   -101.43146240 </i>
    <i name="e_0_energy">   -101.43146240 </i>
   </energy>
  </scstep>
  <scstep>
   <time name="diag">    0.58    0.58</time>
   <time name="diis">    2.76    2.76</time>
   <time name="orth">    0.02    0.02</time>
   <time name="total">    5.87    5.88</time>
   <energy>
    <i name="e_fr_energy">   -101.43252190 </i>
    <i name="e_wo_entrp">   -101.43252190 </i>
    <i name="e_0_energy">   -101.43252190 </i>
   </energy>
  </scstep>
  <scstep>
   <time name="diag">    0.62    0.62</time>
   <time name="diis">    2.81    2.81</time>
   <time name="orth">    0.02    0.02</time>
   <time name="total">    6.09    6.09</time>
   <energy>
    <i name="e_fr_energy">   -101.43256629 </i>
    <i name="e_wo_entrp">   -101.43256629 </i>
    <i name="e_0_energy">   -101.43256629 </i>
   </energy>
  </scstep>
  <scstep>
   <time name="diag">    0.51    0.51</time>
   <time name="diis">    2.69    2.69</time>
   <time name="orth">    0.02    0.02</time>
   <time name="total">    5.37    5.38</time>
   <energy>
    <i name="e_fr_energy">   -101.43266627 </i>
    <i name="e_wo_entrp">   -101.43266627 </i>
    <i name="e_0_energy">   -101.43266627 </i>
   </energy>
  </scstep>
  <scstep>
   <time name="diag">    0.35    0.35</time>
   <time name="diis">    1.51    1.51</time>
   <time name="orth">    0.01    0.01</time>
   <time name="total">    3.45    3.45</time>
   <energy>
    <i name="e_fr_energy">   -101.43268475 </i>
    <i name="e_wo_entrp">   -101.43268475 </i>
    <i name="e_0_energy">   -101.43268475 </i>
   </energy>
  </scstep>
  <scstep>
   <time name="diag">    0.13    0.13</time>
   <time name="diis">    0.55    0.55</time>
   <time name="orth">    0.01    0.01</time>
   <time name="total">    1.61    1.61</time>
   <energy>
    <i name="e_fr_energy">   -101.43269620 </i>
    <i name="e_wo_entrp">   -101.43269620 </i>
    <i name="e_0_energy">   -101.43269620 </i>
   </energy>
  </scstep>
  <scstep>
   <time name="diag">    0.13    0.13</time>
   <time name="diis">    0.50    0.50</time>
   <time name="orth">    0.01    0.01</time>
   <time name="total">    1.44    1.44</time>
   <energy>
    <i name="alphaZ">      2.15216506 </i>
    <i name="ewald">   2257.16945698 </i>
    <i name="hartreedc">  -3387.55076040 </i>
    <i name="XCdc">    139.19971972 </i>
    <i name="pawpsdc">   3494.63732878 </i>
    <i name="pawaedc">  -3500.99399162 </i>
    <i name="eentropy">     -0.00000000 </i>
    <i name="bandstr">   -512.71988164 </i>
    <i name="atom">   1406.67326350 </i>
    <i name="e_fr_energy">   -101.43269961 </i>
    <i name="e_wo_entrp">   -101.43269961 </i>
    <i name="e_0_energy">   -101.43269961 </i>
   </energy>
  </scstep>
  <structure>
   <crystal>
    <varray name="basis" >
     <v>      15.40225029       0.00000000       0.00000000 </v>
     <v>       0.00000000      15.40225029       0.00000000 </v>
     <v>       0.00000000       0.00000000      15.40225029 </v>
    </varray>
    <i name="volume">   3653.86527022 </i>
    <varray name="rec_basis" >
     <v>       0.06492558       0.00000000       0.00000000 </v>
     <v>       0.00000000       0.06492558       0.00000000 </v>
     <v>       0.00000000       0.00000000       0.06492558 </v>
    </varray>
   </crystal>
   <varray name="positions" >
    <v>       0.33744625       0.43805915       0.57684540 </v>
    <v>       0.33321506       0.53227085       0.57903054 </v>
    <v>       0.40241525       0.58516783       0.57177034 </v>
    <v>       0.41135329       0.39217789       0.56799721 </v>
    <v>       0.45938360       0.44050697       0.40578268 </v>
    <v>       0.45721340       0.52786491       0.40694664 </v>
    <v>       0.53321593       0.57984660       0.41111824 </v>
    <v>       0.27518187       0.40426896       0.57652139 </v>
    <v>       0.47380992       0.42542346       0.56820242 </v>
    <v>       0.41223074       0.32209370       0.55889107 </v>
    <v>       0.26816927       0.56041260       0.58044390 </v>
    <v>       0.46813194       0.55914996       0.56842164 </v>
    <v>       0.39672803       0.65534752       0.56610942 </v>
    <v>       0.39984393       0.40283021       0.40497658 </v>
    <v>       0.52051154       0.40505660       0.40752515 </v>
    <v>       0.39599908       0.56330103       0.40857937 </v>
    <v>       0.59462205       0.62429969       0.41544664 </v>
   </varray>
  </structure>
  <varray name="forces" >
   <v>      -0.05341908      -0.01089544       0.02104151 </v>
   <v>      -0.04727892       0.02270612       0.00320591 </v>
   <v>       0.04003124       0.04162760       0.05489920 </v>
   <v>       0.04229056      -0.01134185       0.08955377 </v>
   <v>      -0.02074332      -0.03327926      -0.08108475 </v>
   <v>       0.00422996       0.04709316      -0.18366903 </v>
   <v>      -0.03875180      -0.03464724      -0.09785866 </v>
   <v>      -0.06885041      -0.10369471       0.03978420 </v>
   <v>       0.10301264      -0.16781623       0.14619430 </v>
   <v>      -0.04872639      -0.06860599       0.14526202 </v>
   <v>      -0.06222006       0.07307886       0.07769565 </v>
   <v>       0.04191154       0.10203742       0.19455100 </v>
   <v>      -0.08437738       0.08916360       0.11567667 </v>
   <v>      -0.03092586      -0.00057494      -0.24965491 </v>
   <v>       0.07273723      -0.03540459      -0.06028973 </v>
   <v>      -0.02037606      -0.01797644      -0.22873124 </v>
   <v>       0.17145610       0.10852993       0.01342409 </v>
  </varray>
  <varray name="stress" >
   <v>      -0.33589867       0.06561147      -0.15959599 </v>
   <v>       0.06561147      -0.25740190      -0.02270388 </v>
   <v>      -0.15959599      -0.02270388       0.05236120 </v>
  </varray>
  <energy>
   <i name="e_fr_energy">   -101.66355362 </i>
   <i name="e_wo_entrp">   -101.66355362 </i>
   <i name="e_0_energy">   -101.66355362 </i>
  </energy>
  <time name="totalsc">   37.71   37.95</time>
 </calculation>
 <calculation>
  <scstep>
   <time name="dav">    2.80    2.80</time>
   <time name="total">    4.83    4.83</time>
   <energy>
    <i name="alphaZ">      2.15216506 </i>
    <i name="ewald">   2251.92634137 </i>
    <i name="hartreedc">  -3382.73248274 </i>
    <i name="XCdc">    139.16478170 </i>
    <i name="pawpsdc">   3494.35996508 </i>
    <i name="pawaedc">  -3500.71661723 </i>
    <i name="eentropy">     -0.00000000 </i>
    <i name="bandstr">   -512.26699639 </i>
    <i name="atom">   1406.67326350 </i>
    <i name="e_fr_energy">   -101.43957966 </i>
    <i name="e_wo_entrp">   -101.43957966 </i>
    <i name="e_0_energy">   -101.43957966 </i>
   </energy>
  </scstep>
  <scstep>
   <time name="diag">    0.43    0.43</time>
   <time name="diis">    2.99    2.99</time>
   <time name="orth">    0.02    0.02</time>
   <time name="total">    6.02    6.02</time>
   <energy>
    <i name="e_fr_energy">   -101.44000378 </i>
    <i name="e_wo_entrp">   -101.44000378 </i>
    <i name="e_0_energy">   -101.44000378 </i>
   </energy>
  </scstep>
  <scstep>
   <time name="diag">    0.56    0.56</time>
   <time name="diis">    3.21    3.23</time>
   <time name="orth">    0.03    0.03</time>
   <time name="total">    6.27    6.29</time>
   <energy>
    <i name="e_fr_energy">   -101.44003398 </i>
    <i name="e_wo_entrp">   -101.44003398 </i>
    <i name="e_0_energy">   -101.44003398 </i>
   </energy>
  </scstep>
  <scstep>
   <time name="diag">    0.50    0.50</time>
   <time name="diis">    2.84    2.84</time>
   <time name="orth">    0.02    0.02</time>
   <time name="total">    5.70    5.70</time>
   <energy>
    <i name="e_fr_energy">   -101.44008162 </i>
    <i name="e_wo_entrp">   -101.44008162 </i>
    <i name="e_0_energy">   -101.44008162 </i>
   </energy>
  </scstep>
  <scstep>
   <time name="diag">    0.29    0.29</time>
   <time name="diis">    1.49    1.49</time>
   <time name="orth">    0.01    0.01</time>
   <time name="total">    3.54    3.54</time>
   <energy>
    <i name="e_fr_energy">   -101.44009169 </i>
    <i name="e_wo_entrp">   -101.44009169 </i>
    <i name="e_0_energy">   -101.44009169 </i>
   </energy>
  </scstep>
  <scstep>
   <time name="diag">    0.12    0.12</time>
   <time name="diis">    0.44    0.44</time>
   <time name="orth">    0.01    0.01</time>
   <time name="total">    1.45    1.45</time>
   <energy>
    <i name="alphaZ">      2.15216506 </i>
    <i name="ewald">   2251.92634137 </i>
    <i name="hartreedc">  -3382.39884648 </i>
    <i name="XCdc">    139.15219414 </i>
    <i name="pawpsdc">   3486.99931363 </i>
    <i name="pawaedc">  -3493.35147128 </i>
    <i name="eentropy">     -0.00000000 </i>
    <i name="bandstr">   -512.59305714 </i>
    <i name="atom">   1406.67326350 </i>
    <i name="e_fr_energy">   -101.44009719 </i>
    <i name="e_wo_entrp">   -101.44009719 </i>
    <i name="e_0_energy">   -101.44009719 </i>
   </energy>
  </scstep>
  <structure>
   <crystal>
    <varray name="basis" >
     <v>      15.40225029       0.00000000       0.00000000 </v>
     <v>       0.00000000      15.40225029       0.00000000 </v>
     <v>       0.00000000       0.00000000      15.40225029 </v>
    </varray>
    <i name="volume">   3653.86527022 </i>
    <varray name="rec_basis" >
     <v>       0.06492558       0.00000000       0.00000000 </v>
     <v>       0.00000000       0.06492558       0.00000000 </v>
     <v>       0.00000000       0.00000000       0.06492558 </v>
    </varray>
   </crystal>
   <varray name="positions" >
    <v>       0.33731826       0.43805221       0.57692269 </v>
    <v>       0.33313416       0.53234314       0.57914392 </v>
    <v>       0.40236016       0.58525353       0.57196938 </v>
    <v>       0.41121054       0.39208910       0.56823411 </v>
    <v>       0.45955043       0.44045824       0.40525520 </v>
    <v>       0.45732190       0.52783154       0.40645687 </v>
    <v>       0.53325496       0.57988404       0.41076723 </v>
    <v>       0.27501054       0.40426601       0.57665550 </v>
    <v>       0.47374710       0.42528485       0.56810571 </v>
    <v>       0.41198914       0.32196332       0.55917875 </v>
    <v>       0.26805767       0.56050072       0.58073724 </v>
    <v>       0.46808212       0.55918541       0.56832853 </v>
    <v>       0.39662913       0.65547222       0.56639253 </v>
    <v>       0.39994665       0.40275903       0.40477786 </v>
    <v>       0.52073190       0.40498940       0.40707896 </v>
    <v>       0.39601305       0.56321627       0.40850626 </v>
    <v>       0.59465567       0.62452268       0.41522152 </v>
   </varray>
  </structure>
  <varray name="forces" >
   <v>      -0.04232527      -0.00369587       0.02388773 </v>
   <v>      -0.04267767       0.01738125       0.00365944 </v>
   <v>       0.02819085       0.03309023       0.03886369 </v>
   <v>       0.03874756      -0.00638907       0.06771282 </v>
   <v>      -0.02422476      -0.03704127      -0.06482961 </v>
   <v>      -0.02163755       0.03308087      -0.15942097 </v>
   <v>       0.11578409       0.08032954      -0.09251199 </v>
   <v>      -0.05319755      -0.09245210       0.04108478 </v>
   <v>       0.08094355      -0.17464131       0.15147816 </v>
   <v>      -0.04797504      -0.05187267       0.14823879 </v>
   <v>      -0.04351880       0.06621347       0.07469993 </v>
   <v>       0.02602292       0.11028145       0.19632957 </v>
   <v>      -0.07941738       0.07032292       0.11978234 </v>
   <v>      -0.00468810       0.01294672      -0.24959647 </v>
   <v>       0.04758896      -0.01970407      -0.06873307 </v>
   <v>       0.00549061      -0.03230093      -0.23434740 </v>
   <v>       0.01689359      -0.00554915       0.00370226 </v>
  </varray>
  <varray name="stress" >
   <v>      -0.48589041       0.02569989      -0.15990594 </v>
   <v>       0.02569990      -0.37185245      -0.02555996 </v>
   <v>      -0.15990595      -0.02555996       0.03130233 </v>
  </varray>
  <energy>
   <i name="e_fr_energy">   -101.67074584 </i>
   <i name="e_wo_entrp">   -101.67074584 </i>
   <i name="e_0_energy">   -101.67074584 </i>
  </energy>
  <time name="totalsc">   36.50   36.53</time>
 </calculation>
 <calculation>
  <scstep>
   <time name="dav">    2.91    2.91</time>
   <time name="total">    5.52    5.52</time>
   <energy>
    <i name="alphaZ">      2.15216506 </i>
    <i name="ewald">   2247.98569405 </i>
    <i name="hartreedc">  -3378.59398864 </i>
    <i name="XCdc">    139.13374391 </i>
    <i name="pawpsdc">   3487.17438499 </i>
    <i name="pawaedc">  -3493.52647676 </i>
    <i name="eentropy">     -0.00000000 </i>
    <i name="bandstr">   -512.44471698 </i>
    <i name="atom">   1406.67326350 </i>
    <i name="e_fr_energy">   -101.44593088 </i>
    <i name="e_wo_entrp">   -101.44593088 </i>
    <i name="e_0_energy">   -101.44593088 </i>
   </energy>
  </scstep>
  <scstep>
   <time name="diag">    0.55    0.55</time>
   <time name="diis">    2.90    2.90</time>
   <time name="orth">    0.02    0.02</time>
   <time name="total">    6.01    6.01</time>
   <energy>
    <i name="e_fr_energy">   -101.44626116 </i>
    <i name="e_wo_entrp">   -101.44626116 </i>
    <i name="e_0_energy">   -101.44626116 </i>
   </energy>
  </scstep>
  <scstep>
   <time name="diag">    0.57    0.57</time>
   <time name="diis">    2.42    2.42</time>
   <time name="orth">    0.01    0.01</time>
   <time name="total">    5.35    5.35</time>
   <energy>
    <i name="e_fr_energy">   -101.44630159 </i>
    <i name="e_wo_entrp">   -101.44630159 </i>
    <i name="e_0_energy">   -101.44630159 </i>
   </energy>
  </scstep>
  <scstep>
   <time name="diag">    0.24    0.24</time>
   <time name="diis">    1.21    1.21</time>
   <time name="orth">    0.01    0.01</time>
   <time name="total">    2.77    2.77</time>
   <energy>
    <i name="e_fr_energy">   -101.44633293 </i>
    <i name="e_wo_entrp">   -101.44633293 </i>
    <i name="e_0_energy">   -101.44633293 </i>
   </energy>
  </scstep>
  <scstep>
   <time name="diag">    0.19    0.19</time>
   <time name="diis">    0.92    0.92</time>
   <time name="orth">    0.01    0.01</time>
   <time name="total">    2.09    2.09</time>
   <energy>
    <i name="alphaZ">      2.15216506 </i>
    <i name="ewald">   2247.98569405 </i>
    <i name="hartreedc">  -3378.48005636 </i>
    <i name="XCdc">    139.13233061 </i>
    <i name="pawpsdc">   3485.92500983 </i>
    <i name="pawaedc">  -3492.27631102 </i>
    <i name="eentropy">     -0.00000000 </i>
    <i name="bandstr">   -512.55843457 </i>
    <i name="atom">   1406.67326350 </i>
    <i name="e_fr_energy">   -101.44633892 </i>
    <i name="e_wo_entrp">   -101.44633892 </i>
    <i name="e_0_energy">   -101.44633892 </i>
   </energy>
  </scstep>
  <structure>
   <crystal>
    <varray name="basis" >
     <v>      15.40225029       0.00000000       0.00000000 </v>
     <v>       0.00000000      15.40225029       0.00000000 </v>
     <v>       0.00000000       0.00000000      15.40225029 </v>
    </varray>
    <i name="volume">   3653.86527022 </i>
    <varray name="rec_basis" >
     <v>       0.06492558       0.00000000       0.00000000 </v>
     <v>       0.00000000       0.06492558       0.00000000 </v>
     <v>       0.00000000       0.00000000       0.06492558 </v>
    </varray>
   </crystal>
   <varray name="positions" >
    <v>       0.33721627       0.43805402       0.57699670 </v>
    <v>       0.33306090       0.53240432       0.57924454 </v>
    <v>       0.40229938       0.58532086       0.57213185 </v>
    <v>       0.41108046       0.39201488       0.56843262 </v>
    <v>       0.45969776       0.44042562       0.40478913 </v>
    <v>       0.45740636       0.52778294       0.40603248 </v>
    <v>       0.53333923       0.57995726       0.41044038 </v>
    <v>       0.27486735       0.40427180       0.57678141 </v>
    <v>       0.47366271       0.42514208       0.56802631 </v>
    <v>       0.41176822       0.32186196       0.55944803 </v>
    <v>       0.26797968       0.56057535       0.58100311 </v>
    <v>       0.46801931       0.55923117       0.56825170 </v>
    <v>       0.39654070       0.65556809       0.56666131 </v>
    <v>       0.40006815       0.40270885       0.40459207 </v>
    <v>       0.52090760       0.40494612       0.40666030 </v>
    <v>       0.39605524       0.56312043       0.40842816 </v>
    <v>       0.59462695       0.62468029       0.41501363 </v>
   </varray>
  </structure>
  <varray name="forces" >
   <v>      -0.04317080      -0.00032722       0.02585113 </v>
   <v>      -0.03448830       0.00854588       0.00427691 </v>
   <v>       0.02046390       0.03074839       0.02724965 </v>
   <v>       0.02926534      -0.00606410       0.05181001 </v>
   <v>      -0.02213218      -0.04681176      -0.05165890 </v>
   <v>      -0.00117624       0.05324789      -0.13950619 </v>
   <v>       0.03910749       0.02658052      -0.10025189 </v>
   <v>      -0.03840197      -0.08223183       0.04231624 </v>
   <v>       0.07678882      -0.17238489       0.15554134 </v>
   <v>      -0.04762300      -0.04376293       0.14905370 </v>
   <v>      -0.03641996       0.06288035       0.07212363 </v>
   <v>       0.01916083       0.11318233       0.19694209 </v>
   <v>      -0.07655829       0.05883869       0.12165280 </v>
   <v>       0.00639987       0.01827117      -0.24883272 </v>
   <v>       0.03432812      -0.01026242      -0.07489435 </v>
   <v>       0.01339462      -0.03587986      -0.23810568 </v>
   <v>       0.06106175       0.02542978       0.00643223 </v>
  </varray>
  <varray name="stress" >
   <v>      -0.52366038       0.03005747      -0.15542685 </v>
   <v>       0.03005747      -0.41091115      -0.02469590 </v>
   <v>      -0.15542685      -0.02469590       0.01500796 </v>
  </varray>
  <energy>
   <i name="e_fr_energy">   -101.67679580 </i>
   <i name="e_wo_entrp">   -101.67679580 </i>
   <i name="e_0_energy">   -101.67679580 </i>
  </energy>
  <time name="totalsc">   35.58   35.90</time>
 </calculation>
 <calculation>
  <scstep>
   <time name="dav">    2.09    2.66</time>
   <time name="total">    5.51    6.17</time>
   <energy>
    <i name="alphaZ">      2.15216506 </i>
    <i name="ewald">   2238.87441365 </i>
    <i name="hartreedc">  -3369.58131043 </i>
    <i name="XCdc">    139.09859227 </i>
    <i name="pawpsdc">   3485.10464485 </i>
    <i name="pawaedc">  -3491.45597031 </i>
    <i name="eentropy">     -0.00000000 </i>
    <i name="bandstr">   -512.32449439 </i>
    <i name="atom">   1406.67326350 </i>
    <i name="e_fr_energy">   -101.45869580 </i>
    <i name="e_wo_entrp">   -101.45869580 </i>
    <i name="e_0_energy">   -101.45869580 </i>
   </energy>
  </scstep>
  <scstep>
   <time name="diag">    0.27    0.40</time>
   <time name="diis">    1.49    2.09</time>
   <time name="orth">    0.01    0.02</time>
   <time name="total">    3.57    5.66</time>
   <energy>
    <i name="e_fr_energy">   -101.46101046 </i>
    <i name="e_wo_entrp">   -101.46101046 </i>
    <i name="e_0_energy">   -101.46101046 </i>
   </energy>
  </scstep>
  <scstep>
   <time name="diag">    0.34    0.39</time>
   <time name="diis">    1.58    1.98</time>
   <time name="orth">    0.01    0.01</time>
   <time name="total">    3.62    4.20</time>
   <energy>
    <i name="e_fr_energy">   -101.46116394 </i>
    <i name="e_wo_entrp">   -101.46116394 </i>
    <i name="e_0_energy">   -101.46116394 </i>
   </energy>
  </scstep>
  <scstep>
   <time name="diag">    0.40    0.41</time>
   <time name="diis">    1.94    1.94</time>
   <time name="orth">    0.01    0.01</time>
   <time name="total">    3.93    3.95</time>
   <energy>
    <i name="e_fr_energy">   -101.46135825 </i>
    <i name="e_wo_entrp">   -101.46135825 </i>
    <i name="e_0_energy">   -101.46135825 </i>
   </energy>
  </scstep>
  <scstep>
   <time name="diag">    0.35    0.65</time>
   <time name="diis">    1.19    2.42</time>
   <time name="orth">    0.01    0.02</time>
   <time name="total">    3.08    5.24</time>
   <energy>
    <i name="e_fr_energy">   -101.46138994 </i>
    <i name="e_wo_entrp">   -101.46138994 </i>
    <i name="e_0_energy">   -101.46138994 </i>
   </energy>
  </scstep>
  <scstep>
   <time name="diag">    0.16    0.16</time>
   <time name="diis">    0.77    0.83</time>
   <time name="orth">    0.01    0.01</time>
   <time name="total">    1.73    1.93</time>
   <energy>
    <i name="e_fr_energy">   -101.46140245 </i>
    <i name="e_wo_entrp">   -101.46140245 </i>
    <i name="e_0_energy">   -101.46140245 </i>
   </energy>
  </scstep>
  <scstep>
   <time name="diag">    0.09    0.11</time>
   <time name="diis">    0.44    0.44</time>
   <time name="orth">    0.01    0.01</time>
   <time name="total">    1.00    1.54</time>
   <energy>
    <i name="alphaZ">      2.15216506 </i>
    <i name="ewald">   2238.87441365 </i>
    <i name="hartreedc">  -3369.38844244 </i>
    <i name="XCdc">    139.09789564 </i>
    <i name="pawpsdc">   3482.02924962 </i>
    <i name="pawaedc">  -3488.37875121 </i>
    <i name="eentropy">     -0.00000000 </i>
    <i name="bandstr">   -512.52120406 </i>
    <i name="atom">   1406.67326350 </i>
    <i name="e_fr_energy">   -101.46141024 </i>
    <i name="e_wo_entrp">   -101.46141024 </i>
    <i name="e_0_energy">   -101.46141024 </i>
   </energy>
  </scstep>
  <structure>
   <crystal>
    <varray name="basis" >
     <v>      15.40225029       0.00000000       0.00000000 </v>
     <v>       0.00000000      15.40225029       0.00000000 </v>
     <v>       0.00000000       0.00000000      15.40225029 </v>
    </varray>
    <i name="volume">   3653.86527022 </i>
    <varray name="rec_basis" >
     <v>       0.06492558       0.00000000       0.00000000 </v>
     <v>       0.00000000       0.06492558       0.00000000 </v>
     <v>       0.00000000       0.00000000       0.06492558 </v>
    </varray>
   </crystal>
   <varray name="positions" >
    <v>       0.33696788       0.43807744       0.57719846 </v>
    <v>       0.33289108       0.53253268       0.57949539 </v>
    <v>       0.40211354       0.58547466       0.57249036 </v>
    <v>       0.41072387       0.39183247       0.56888770 </v>
    <v>       0.46007220       0.44033002       0.40364167 </v>
    <v>       0.45764863       0.52768652       0.40501220 </v>
    <v>       0.53346788       0.58009027       0.40956342 </v>
    <v>       0.27454890       0.40431690       0.57711899 </v>
    <v>       0.47340290       0.42474259       0.56785499 </v>
    <v>       0.41119596       0.32164169       0.56016227 </v>
    <v>       0.26782933       0.56075765       0.58168193 </v>
    <v>       0.46781859       0.55938459       0.56808248 </v>
    <v>       0.39631399       0.65576618       0.56738611 </v>
    <v>       0.40044555       0.40261496       0.40409486 </v>
    <v>       0.52129664       0.40488663       0.40554329 </v>
    <v>       0.39622442       0.56283212       0.40818539 </v>
    <v>       0.59456262       0.62508412       0.41448141 </v>
   </varray>
  </structure>
  <varray name="forces" >
   <v>      -0.04748750       0.00300524       0.02662045 </v>
   <v>      -0.02782838      -0.00568082       0.00685159 </v>
   <v>       0.01789026       0.02580454       0.00696972 </v>
   <v>       0.01118643      -0.00021746       0.02042629 </v>
   <v>      -0.01827065      -0.01128174      -0.02128319 </v>
   <v>       0.01877480       0.02939542      -0.10321080 </v>
   <v>       0.05803653       0.04205280      -0.09611805 </v>
   <v>      -0.01890825      -0.06454938       0.04692266 </v>
   <v>       0.08028888      -0.15918103       0.16284982 </v>
   <v>      -0.05033244      -0.04276974       0.14724251 </v>
   <v>      -0.03088833       0.05552139       0.06750205 </v>
   <v>       0.01553537       0.11245955       0.19475528 </v>
   <v>      -0.07490716       0.04733953       0.12209280 </v>
   <v>      -0.00074609       0.01090816      -0.24720645 </v>
   <v>       0.03839493      -0.01007789      -0.08806975 </v>
   <v>       0.00607584      -0.02958306      -0.24399759 </v>
   <v>       0.02318576      -0.00314551      -0.00234732 </v>
  </varray>
  <varray name="stress" >
   <v>      -0.56833446       0.01437673      -0.15063769 </v>
   <v>       0.01437673      -0.48395272      -0.02365597 </v>
   <v>      -0.15063769      -0.02365597      -0.03128924 </v>
  </varray>
  <energy>
   <i name="e_fr_energy">   -101.69130670 </i>
   <i name="e_wo_entrp">   -101.69130670 </i>
   <i name="e_0_energy">   -101.69130670 </i>
  </energy>
  <time name="totalsc">   38.02   45.83</time>
 </calculation>
 <calculation>
  <scstep>
   <time name="dav">    1.60    1.92</time>
   <time name="total">    3.36    4.41</time>
   <energy>
    <i name="alphaZ">      2.15216506 </i>
    <i name="ewald">   2222.77787517 </i>
    <i name="hartreedc">  -3353.63821051 </i>
    <i name="XCdc">    139.03817589 </i>
    <i name="pawpsdc">   3481.60593443 </i>
    <i name="pawaedc">  -3487.95542952 </i>
    <i name="eentropy">     -0.00000000 </i>
    <i name="bandstr">   -512.13023862 </i>
    <i name="atom">   1406.67326350 </i>
    <i name="e_fr_energy">   -101.47646459 </i>
    <i name="e_wo_entrp">   -101.47646459 </i>
    <i name="e_0_energy">   -101.47646459 </i>
   </energy>
  </scstep>
  <scstep>
   <time name="diag">    0.45    0.62</time>
   <time name="diis">    1.44    2.73</time>
   <time name="orth">    0.02    0.04</time>
   <time name="total">    3.87    6.44</time>
   <energy>
    <i name="e_fr_energy">   -101.48474162 </i>
    <i name="e_wo_entrp">   -101.48474162 </i>
    <i name="e_0_energy">   -101.48474162 </i>
   </energy>
  </scstep>
  <scstep>
   <time name="diag">    0.39    0.39</time>
   <time name="diis">    1.71    2.73</time>
   <time name="orth">    0.01    0.03</time>
   <time name="total">    4.59    6.44</time>
   <energy>
    <i name="e_fr_energy">   -101.48506774 </i>
    <i name="e_wo_entrp">   -101.48506774 </i>
    <i name="e_0_energy">   -101.48506774 </i>
   </energy>
  </scstep>
  <scstep>
   <time name="diag">    0.46    0.54</time>
   <time name="diis">    3.06    3.22</time>
   <time name="orth">    0.02    0.04</time>
   <time name="total">    5.26    6.98</time>
   <energy>
    <i name="e_fr_energy">   -101.48560188 </i>
    <i name="e_wo_entrp">   -101.48560188 </i>
    <i name="e_0_energy">   -101.48560188 </i>
   </energy>
  </scstep>
  <scstep>
   <time name="diag">    0.21    0.37</time>
   <time name="diis">    0.86    1.60</time>
   <time name="orth">    0.02    0.03</time>
   <time name="total">    2.54    4.42</time>
   <energy>
    <i name="e_fr_energy">   -101.48574103 </i>
    <i name="e_wo_entrp">   -101.48574103 </i>
    <i name="e_0_energy">   -101.48574103 </i>
   </energy>
  </scstep>
  <scstep>
   <time name="diag">    0.15    0.20</time>
   <time name="diis">    0.71    0.73</time>
   <time name="orth">    0.01    0.01</time>
   <time name="total">    1.96    3.12</time>
   <energy>
    <i name="e_fr_energy">   -101.48577354 </i>
    <i name="e_wo_entrp">   -101.48577354 </i>
    <i name="e_0_energy">   -101.48577354 </i>
   </energy>
  </scstep>
  <scstep>
   <time name="diag">    0.12    0.20</time>
   <time name="diis">    0.41    0.64</time>
   <time name="orth">    0.01    0.02</time>
   <time name="total">    1.59    2.50</time>
   <energy>
    <i name="e_fr_energy">   -101.48578932 </i>
    <i name="e_wo_entrp">   -101.48578932 </i>
    <i name="e_0_energy">   -101.48578932 </i>
   </energy>
  </scstep>
  <scstep>
   <time name="diag">    0.13    0.16</time>
   <time name="diis">    0.36    0.57</time>
   <time name="orth">    0.01    0.01</time>
   <time name="total">    1.20    1.90</time>
   <energy>
    <i name="e_fr_energy">   -101.48580251 </i>
    <i name="e_wo_entrp">   -101.48580251 </i>
    <i name="e_0_energy">   -101.48580251 </i>
   </energy>
  </scstep>
  <scstep>
   <time name="diag">    0.11    0.18</time>
   <time name="diis">    0.81    1.13</time>
   <time name="orth">    0.02    0.02</time>
   <time name="total">    1.72    2.40</time>
   <energy>
    <i name="alphaZ">      2.15216506 </i>
    <i name="ewald">   2222.77787517 </i>
    <i name="hartreedc">  -3353.34014551 </i>
    <i name="XCdc">    139.03704777 </i>
    <i name="pawpsdc">   3476.44245770 </i>
    <i name="pawaedc">  -3482.78880873 </i>
    <i name="eentropy">     -0.00000000 </i>
    <i name="bandstr">   -512.43966677 </i>
    <i name="atom">   1406.67326350 </i>
    <i name="e_fr_energy">   -101.48581182 </i>
    <i name="e_wo_entrp">   -101.48581182 </i>
    <i name="e_0_energy">   -101.48581182 </i>
   </energy>
  </scstep>
  <structure>
   <crystal>
    <varray name="basis" >
     <v>      15.40225029       0.00000000       0.00000000 </v>
     <v>       0.00000000      15.40225029       0.00000000 </v>
     <v>       0.00000000       0.00000000      15.40225029 </v>
    </varray>
    <i name="volume">   3653.86527022 </i>
    <varray name="rec_basis" >
     <v>       0.06492558       0.00000000       0.00000000 </v>
     <v>       0.00000000       0.06492558       0.00000000 </v>
     <v>       0.00000000       0.00000000       0.06492558 </v>
    </varray>
   </crystal>
   <varray name="positions" >
    <v>       0.33649719       0.43812293       0.57756920 </v>
    <v>       0.33259011       0.53274368       0.57994838 </v>
    <v>       0.40178036       0.58575098       0.57310667 </v>
    <v>       0.41005098       0.39150642       0.56967815 </v>
    <v>       0.46075518       0.44020397       0.40160087 </v>
    <v>       0.45812626       0.52749034       0.40319744 </v>
    <v>       0.53370379       0.58033441       0.40795945 </v>
    <v>       0.27399034       0.40441212       0.57774854 </v>
    <v>       0.47295437       0.42401435       0.56757657 </v>
    <v>       0.41014488       0.32123116       0.56147522 </v>
    <v>       0.26755752       0.56108995       0.58291435 </v>
    <v>       0.46745672       0.55967762       0.56780067 </v>
    <v>       0.39588909       0.65611974       0.56872536 </v>
    <v>       0.40111207       0.40243278       0.40316453 </v>
    <v>       0.52202325       0.40477992       0.40348065 </v>
    <v>       0.39651317       0.56231283       0.40770325 </v>
    <v>       0.59443181       0.62580183       0.41350441 </v>
   </varray>
  </structure>
  <varray name="forces" >
   <v>      -0.03968584       0.01176480       0.02761306 </v>
   <v>      -0.02602194      -0.01286080       0.01219827 </v>
   <v>       0.00760314       0.01117663      -0.02343587 </v>
   <v>       0.00891718       0.01139220      -0.03279217 </v>
   <v>      -0.01713524      -0.03734943       0.02894718 </v>
   <v>       0.00552507       0.06274571      -0.03910742 </v>
   <v>       0.07798469       0.05596837      -0.08752297 </v>
   <v>      -0.00103846      -0.04043199       0.05488946 </v>
   <v>       0.06340562      -0.14652341       0.17641315 </v>
   <v>      -0.05592932      -0.03358615       0.14219747 </v>
   <v>      -0.01118442       0.03741941       0.05813074 </v>
   <v>       0.01051131       0.11227647       0.19054683 </v>
   <v>      -0.07121179       0.02618759       0.11963748 </v>
   <v>       0.01375246       0.01797051      -0.24525036 </v>
   <v>       0.03082766      -0.00007623      -0.11055229 </v>
   <v>       0.02732956      -0.03503958      -0.25557015 </v>
   <v>      -0.02364969      -0.04103411      -0.01634241 </v>
  </varray>
  <varray name="stress" >
   <v>      -0.67013348      -0.00753957      -0.13937042 </v>
   <v>      -0.00753957      -0.58820048      -0.02165635 </v>
   <v>      -0.13937042      -0.02165635      -0.11172293 </v>
  </varray>
  <energy>
   <i name="e_fr_energy">   -101.71457452 </i>
   <i name="e_wo_entrp">   -101.71457452 </i>
   <i name="e_0_energy">   -101.71457452 </i>
  </energy>
  <time name="totalsc">   33.21   48.47</time>
 </calculation>
 <calculation>
  <scstep>
   <time name="dav">    1.33    1.77</time>
   <time name="total">    2.69    4.20</time>
   <energy>
    <i name="alphaZ">      2.15216506 </i>
    <i name="ewald">   2216.68648587 </i>
    <i name="hartreedc">  -3347.32624945 </i>
    <i name="XCdc">    139.01834103 </i>
    <i name="pawpsdc">   3475.87111913 </i>
    <i name="pawaedc">  -3482.21747682 </i>
    <i name="eentropy">     -0.00000000 </i>
    <i name="bandstr">   -512.35136518 </i>
    <i name="atom">   1406.67326350 </i>
    <i name="e_fr_energy">   -101.49371686 </i>
    <i name="e_wo_entrp">   -101.49371686 </i>
    <i name="e_0_energy">   -101.49371686 </i>
   </energy>
  </scstep>
  <scstep>
   <time name="diag">    0.17    0.17</time>
   <time name="diis">    1.26    1.28</time>
   <time name="orth">    0.01    0.01</time>
   <time name="total">    2.58    2.94</time>
   <energy>
    <i name="e_fr_energy">   -101.49490336 </i>
    <i name="e_wo_entrp">   -101.49490336 </i>
    <i name="e_0_energy">   -101.49490336 </i>
   </energy>
  </scstep>
  <scstep>
   <time name="diag">    0.45    0.46</time>
   <time name="diis">    1.45    1.84</time>
   <time name="orth">    0.01    0.01</time>
   <time name="total">    3.53    4.18</time>
   <energy>
    <i name="e_fr_energy">   -101.49501342 </i>
    <i name="e_wo_entrp">   -101.49501342 </i>
    <i name="e_0_energy">   -101.49501342 </i>
   </energy>
  </scstep>
  <scstep>
   <time name="diag">    0.24    0.43</time>
   <time name="diis">    1.78    1.87</time>
   <time name="orth">    0.01    0.01</time>
   <time name="total">    3.39    4.58</time>
   <energy>
    <i name="e_fr_energy">   -101.49511065 </i>
    <i name="e_wo_entrp">   -101.49511065 </i>
    <i name="e_0_energy">   -101.49511065 </i>
   </energy>
  </scstep>
  <scstep>
   <time name="diag">    0.52    0.53</time>
   <time name="diis">    2.55    2.86</time>
   <time name="orth">    0.02    0.03</time>
   <time name="total">    5.15    6.21</time>
   <energy>
    <i name="e_fr_energy">   -101.49512759 </i>
    <i name="e_wo_entrp">   -101.49512759 </i>
    <i name="e_0_energy">   -101.49512759 </i>
   </energy>
  </scstep>
  <scstep>
   <time name="diag">    0.33    0.34</time>
   <time name="diis">    1.76    2.06</time>
   <time name="orth">    0.02    0.02</time>
   <time name="total">    3.69    4.07</time>
   <energy>
    <i name="alphaZ">      2.15216506 </i>
    <i name="ewald">   2216.68648587 </i>
    <i name="hartreedc">  -3347.26128330 </i>
    <i name="XCdc">    139.02042376 </i>
    <i name="pawpsdc">   3475.84302517 </i>
    <i name="pawaedc">  -3482.18911160 </i>
    <i name="eentropy">     -0.00000000 </i>
    <i name="bandstr">   -512.42010456 </i>
    <i name="atom">   1406.67326350 </i>
    <i name="e_fr_energy">   -101.49513609 </i>
    <i name="e_wo_entrp">   -101.49513609 </i>
    <i name="e_0_energy">   -101.49513609 </i>
   </energy>
  </scstep>
  <structure>
   <crystal>
    <varray name="basis" >
     <v>      15.40225029       0.00000000       0.00000000 </v>
     <v>       0.00000000      15.40225029       0.00000000 </v>
     <v>       0.00000000       0.00000000      15.40225029 </v>
    </varray>
    <i name="volume">   3653.86527022 </i>
    <varray name="rec_basis" >
     <v>       0.06492558       0.00000000       0.00000000 </v>
     <v>       0.00000000       0.06492558       0.00000000 </v>
     <v>       0.00000000       0.00000000       0.06492558 </v>
    </varray>
   </crystal>
   <varray name="positions" >
    <v>       0.33630504       0.43814772       0.57772336 </v>
    <v>       0.33246905       0.53281957       0.58013076 </v>
    <v>       0.40164152       0.58585463       0.57332821 </v>
    <v>       0.40977410       0.39138121       0.56996545 </v>
    <v>       0.46102994       0.44014525       0.40080988 </v>
    <v>       0.45831982       0.52742939       0.40249879 </v>
    <v>       0.53380918       0.58044054       0.40730109 </v>
    <v>       0.27377627       0.40446065       0.57801589 </v>
    <v>       0.47276978       0.42370817       0.56749096 </v>
    <v>       0.40971053       0.32106751       0.56201946 </v>
    <v>       0.26746076       0.56122034       0.58341190 </v>
    <v>       0.46730697       0.55981110       0.56770701 </v>
    <v>       0.39570950       0.65625147       0.56928454 </v>
    <v>       0.40139120       0.40236529       0.40276576 </v>
    <v>       0.52231531       0.40474782       0.40261810 </v>
    <v>       0.39664331       0.56209255       0.40747384 </v>
    <v>       0.59435729       0.62607113       0.41310105 </v>
   </varray>
  </structure>
  <varray name="forces" >
   <v>      -0.03149965       0.01290384       0.02602475 </v>
   <v>      -0.02398655      -0.01275863       0.01327650 </v>
   <v>       0.00331010       0.00768888      -0.03126855 </v>
   <v>       0.00890633       0.01335948      -0.04986474 </v>
   <v>      -0.01545458      -0.02189272       0.04717874 </v>
   <v>       0.00809794       0.05113921      -0.01738715 </v>
   <v>       0.02994835       0.02172543      -0.08406228 </v>
   <v>       0.00008978      -0.03385870       0.05773205 </v>
   <v>       0.05763566      -0.14041036       0.18020460 </v>
   <v>      -0.05794122      -0.02897246       0.13781649 </v>
   <v>      -0.00698557       0.03107358       0.05409425 </v>
   <v>       0.01168773       0.11015836       0.18728570 </v>
   <v>      -0.07001426       0.01908963       0.11586366 </v>
   <v>       0.01455868       0.01709341      -0.24394853 </v>
   <v>       0.03212841       0.00024554      -0.11772165 </v>
   <v>       0.02766584      -0.03041938      -0.25828008 </v>
   <v>       0.01185301      -0.01616514      -0.01694375 </v>
  </varray>
  <varray name="stress" >
   <v>      -0.67434863      -0.00117599      -0.13326435 </v>
   <v>      -0.00117599      -0.61971043      -0.02034619 </v>
   <v>      -0.13326435      -0.02034619      -0.14263040 </v>
  </varray>
  <energy>
   <i name="e_fr_energy">   -101.72338851 </i>
   <i name="e_wo_entrp">   -101.72338851 </i>
   <i name="e_0_energy">   -101.72338851 </i>
  </energy>
  <time name="totalsc">   36.32   48.99</time>
 </calculation>
 <calculation>
  <scstep>
   <time name="dav">    1.91    2.79</time>
   <time name="total">    3.85    4.79</time>
   <energy>
    <i name="alphaZ">      2.15216506 </i>
    <i name="ewald">   2208.21014145 </i>
    <i name="hartreedc">  -3338.97315720 </i>
    <i name="XCdc">    138.98976881 </i>
    <i name="pawpsdc">   3475.65169210 </i>
    <i name="pawaedc">  -3481.99780108 </i>
    <i name="eentropy">     -0.00000000 </i>
    <i name="bandstr">   -512.21034041 </i>
    <i name="atom">   1406.67326350 </i>
    <i name="e_fr_energy">   -101.50426777 </i>
    <i name="e_wo_entrp">   -101.50426777 </i>
    <i name="e_0_energy">   -101.50426777 </i>
   </energy>
  </scstep>
  <scstep>
   <time name="diag">    0.55    0.57</time>
   <time name="diis">    2.76    2.84</time>
   <time name="orth">    0.06    0.06</time>
   <time name="total">    5.32    5.89</time>
   <energy>
    <i name="e_fr_energy">   -101.50651193 </i>
    <i name="e_wo_entrp">   -101.50651193 </i>
    <i name="e_0_energy">   -101.50651193 </i>
   </energy>
  </scstep>
  <scstep>
   <time name="diag">    0.27    0.31</time>
   <time name="diis">    1.64    1.91</time>
   <time name="orth">    0.01    0.01</time>
   <time name="total">    3.64    4.18</time>
   <energy>
[...]
   <v>      -0.00052216       0.00143180       0.00895772 </v>
   <v>      -0.00603379       0.00798846       0.03110285 </v>
   <v>      -0.00720481      -0.01213237       0.04250457 </v>
   <v>       0.00971674       0.00383005      -0.05205871 </v>
   <v>       0.01042254       0.00080434      -0.05011296 </v>
   <v>       0.00475514      -0.00041513      -0.01941507 </v>
   <v>      -0.00182081       0.00102982       0.00493588 </v>
   <v>      -0.00011580      -0.01344683       0.02199397 </v>
   <v>      -0.01178732      -0.01338505       0.04892419 </v>
   <v>      -0.00190560      -0.00374869       0.00155349 </v>
   <v>      -0.00200323       0.01446141       0.02062341 </v>
   <v>      -0.01578859       0.00666253       0.04332991 </v>
   <v>       0.00322900       0.00393390      -0.04409942 </v>
   <v>       0.00430140      -0.00034136      -0.01674710 </v>
   <v>       0.00772672       0.00474143      -0.05600899 </v>
   <v>       0.00691090       0.00167868       0.00357556 </v>
  </varray>
  <varray name="stress" >
   <v>      -0.77764459       0.01243158      -0.05989971 </v>
   <v>       0.01243158      -0.75466563      -0.01476269 </v>
   <v>      -0.05989971      -0.01476269      -0.62958251 </v>
  </varray>
  <energy>
   <i name="e_fr_energy">   -101.87062787 </i>
   <i name="e_wo_entrp">   -101.87062787 </i>
   <i name="e_0_energy">   -101.87062787 </i>
  </energy>
  <time name="totalsc">   22.84   28.44</time>
 </calculation>
 <calculation>
  <scstep>
   <time name="dav">    1.99    2.49</time>
   <time name="total">    3.57    4.75</time>
   <energy>
    <i name="alphaZ">      2.15216506 </i>
    <i name="ewald">   2145.83014353 </i>
    <i name="hartreedc">  -3277.83885972 </i>
    <i name="XCdc">    138.85064257 </i>
    <i name="pawpsdc">   3469.29379654 </i>
    <i name="pawaedc">  -3475.63659141 </i>
    <i name="eentropy">     -0.00000000 </i>
    <i name="bandstr">   -510.97751741 </i>
    <i name="atom">   1406.67326350 </i>
    <i name="e_fr_energy">   -101.65295734 </i>
    <i name="e_wo_entrp">   -101.65295734 </i>
    <i name="e_0_energy">   -101.65295734 </i>
   </energy>
  </scstep>
  <scstep>
   <time name="diag">    0.25    0.33</time>
   <time name="diis">    1.73    1.91</time>
   <time name="orth">    0.02    0.02</time>
   <time name="total">    3.66    4.40</time>
   <energy>
    <i name="e_fr_energy">   -101.65303383 </i>
    <i name="e_wo_entrp">   -101.65303383 </i>
    <i name="e_0_energy">   -101.65303383 </i>
   </energy>
  </scstep>
  <scstep>
   <time name="diag">    0.16    0.33</time>
   <time name="diis">    1.06    2.22</time>
   <time name="orth">    0.02    0.02</time>
   <time name="total">    3.24    5.07</time>
   <energy>
    <i name="e_fr_energy">   -101.65305412 </i>
    <i name="e_wo_entrp">   -101.65305412 </i>
    <i name="e_0_energy">   -101.65305412 </i>
   </energy>
  </scstep>
  <scstep>
   <time name="diag">    0.08    0.19</time>
   <time name="diis">    0.63    0.64</time>
   <time name="orth">    0.00    0.00</time>
   <time name="total">    1.23    1.63</time>
   <energy>
    <i name="alphaZ">      2.15216506 </i>
    <i name="ewald">   2145.83014353 </i>
    <i name="hartreedc">  -3277.84500962 </i>
    <i name="XCdc">    138.85132780 </i>
    <i name="pawpsdc">   3469.27101814 </i>
    <i name="pawaedc">  -3475.61376038 </i>
    <i name="eentropy">     -0.00000000 </i>
    <i name="bandstr">   -510.97220798 </i>
    <i name="atom">   1406.67326350 </i>
    <i name="e_fr_energy">   -101.65305997 </i>
    <i name="e_wo_entrp">   -101.65305997 </i>
    <i name="e_0_energy">   -101.65305997 </i>
   </energy>
  </scstep>
  <structure>
   <crystal>
    <varray name="basis" >
     <v>      15.40225029       0.00000000       0.00000000 </v>
     <v>       0.00000000      15.40225029       0.00000000 </v>
     <v>       0.00000000       0.00000000      15.40225029 </v>
    </varray>
    <i name="volume">   3653.86527022 </i>
    <varray name="rec_basis" >
     <v>       0.06492558       0.00000000       0.00000000 </v>
     <v>       0.00000000       0.06492558       0.00000000 </v>
     <v>       0.00000000       0.00000000       0.06492558 </v>
    </varray>
   </crystal>
   <varray name="positions" >
    <v>       0.33693933       0.43813149       0.57991569 </v>
    <v>       0.33255200       0.53282885       0.58228142 </v>
    <v>       0.40028354       0.58798434       0.57882005 </v>
    <v>       0.40949659       0.38955960       0.57522502 </v>
    <v>       0.46214759       0.44048123       0.39442153 </v>
    <v>       0.45969480       0.52772233       0.39539329 </v>
    <v>       0.53515643       0.58020258       0.40472973 </v>
    <v>       0.27427081       0.40457753       0.57963868 </v>
    <v>       0.47429556       0.41825277       0.57651192 </v>
    <v>       0.40619846       0.31897976       0.57077118 </v>
    <v>       0.26708623       0.56041291       0.58481889 </v>
    <v>       0.46749939       0.56559079       0.57695902 </v>
    <v>       0.39067788       0.65811712       0.57789874 </v>
    <v>       0.40270881       0.40284364       0.38779095 </v>
    <v>       0.52314160       0.40496406       0.40020038 </v>
    <v>       0.39819992       0.56269127       0.39083741 </v>
    <v>       0.59625827       0.62469874       0.41291193 </v>
   </varray>
  </structure>
  <varray name="forces" >
   <v>       0.00053330      -0.00273036       0.01001649 </v>
   <v>       0.00021976       0.00097508       0.00809931 </v>
   <v>      -0.00664689       0.00784196       0.02907154 </v>
   <v>      -0.00647578      -0.01287088       0.04088672 </v>
   <v>       0.00994480       0.00371456      -0.05168755 </v>
   <v>       0.00925196       0.00029996      -0.04954871 </v>
   <v>       0.01098865       0.00381561      -0.01818617 </v>
   <v>      -0.00188196       0.00089778       0.00592917 </v>
   <v>      -0.00065604      -0.01243591       0.02195078 </v>
   <v>      -0.01172758      -0.01324476       0.04841373 </v>
   <v>      -0.00163228      -0.00369010       0.00233614 </v>
   <v>      -0.00254315       0.01346629       0.02038933 </v>
   <v>      -0.01568932       0.00679174       0.04267270 </v>
   <v>       0.00243297       0.00363080      -0.04289177 </v>
   <v>       0.00466712      -0.00061269      -0.01619914 </v>
   <v>       0.00728640       0.00529990      -0.05449149 </v>
   <v>       0.00192801      -0.00114898       0.00323889 </v>
  </varray>
  <varray name="stress" >
   <v>      -0.77948321       0.01110794      -0.05901159 </v>
   <v>       0.01110794      -0.75567313      -0.01466331 </v>
   <v>      -0.05901159      -0.01466331      -0.63436655 </v>
  </varray>
  <energy>
   <i name="e_fr_energy">   -101.87160393 </i>
   <i name="e_wo_entrp">   -101.87160393 </i>
   <i name="e_0_energy">   -101.87160393 </i>
  </energy>
  <time name="totalsc">   18.44   25.84</time>
 </calculation>
 <calculation>
  <scstep>
   <time name="dav">    1.63    2.38</time>
   <time name="total">    3.21    4.88</time>
   <energy>
    <i name="alphaZ">      2.15216506 </i>
    <i name="ewald">   2146.15935194 </i>
    <i name="hartreedc">  -3278.17369283 </i>
    <i name="XCdc">    138.85244083 </i>
    <i name="pawpsdc">   3469.15492943 </i>
    <i name="pawaedc">  -3475.49764941 </i>
    <i name="eentropy">     -0.00000000 </i>
    <i name="bandstr">   -510.97326461 </i>
    <i name="atom">   1406.67326350 </i>
    <i name="e_fr_energy">   -101.65245609 </i>
    <i name="e_wo_entrp">   -101.65245609 </i>
    <i name="e_0_energy">   -101.65245609 </i>
   </energy>
  </scstep>
  <scstep>
   <time name="diag">    0.36    0.73</time>
   <time name="diis">    1.26    1.61</time>
   <time name="orth">    0.01    0.01</time>
   <time name="total">    2.94    4.62</time>
   <energy>
    <i name="e_fr_energy">   -101.65247459 </i>
    <i name="e_wo_entrp">   -101.65247459 </i>
    <i name="e_0_energy">   -101.65247459 </i>
   </energy>
  </scstep>
  <scstep>
   <time name="diag">    0.14    0.18</time>
   <time name="diis">    0.69    1.39</time>
   <time name="orth">    0.01    0.01</time>
   <time name="total">    1.75    2.69</time>
   <energy>
    <i name="alphaZ">      2.15216506 </i>
    <i name="ewald">   2146.15935194 </i>
    <i name="hartreedc">  -3278.17731565 </i>
    <i name="XCdc">    138.85204666 </i>
    <i name="pawpsdc">   3469.05366354 </i>
    <i name="pawaedc">  -3475.39638650 </i>
    <i name="eentropy">     -0.00000000 </i>
    <i name="bandstr">   -510.96927003 </i>
    <i name="atom">   1406.67326350 </i>
    <i name="e_fr_energy">   -101.65248148 </i>
    <i name="e_wo_entrp">   -101.65248148 </i>
    <i name="e_0_energy">   -101.65248148 </i>
   </energy>
  </scstep>
  <structure>
   <crystal>
    <varray name="basis" >
     <v>      15.40225029       0.00000000       0.00000000 </v>
     <v>       0.00000000      15.40225029       0.00000000 </v>
     <v>       0.00000000       0.00000000      15.40225029 </v>
    </varray>
    <i name="volume">   3653.86527022 </i>
    <varray name="rec_basis" >
     <v>       0.06492558       0.00000000       0.00000000 </v>
     <v>       0.00000000       0.06492558       0.00000000 </v>
     <v>       0.00000000       0.00000000       0.06492558 </v>
    </varray>
   </crystal>
   <varray name="positions" >
    <v>       0.33691347       0.43813873       0.57990316 </v>
    <v>       0.33254241       0.53283565       0.58227312 </v>
    <v>       0.40028850       0.58797078       0.57876400 </v>
    <v>       0.40946640       0.38956457       0.57516773 </v>
    <v>       0.46216783       0.44047191       0.39444918 </v>
    <v>       0.45968852       0.52771341       0.39545144 </v>
    <v>       0.53514504       0.58021877       0.40470674 </v>
    <v>       0.27424279       0.40458973       0.57966200 </v>
    <v>       0.47426388       0.41826263       0.57642990 </v>
    <v>       0.40616899       0.31898566       0.57069638 </v>
    <v>       0.26708580       0.56043552       0.58485104 </v>
    <v>       0.46749259       0.56554635       0.57687304 </v>
    <v>       0.39071152       0.65810693       0.57782795 </v>
    <v>       0.40272993       0.40281958       0.38789399 </v>
    <v>       0.52318157       0.40497244       0.40013745 </v>
    <v>       0.39817545       0.56266486       0.39100629 </v>
    <v>       0.59623435       0.62474002       0.41282533 </v>
   </varray>
  </structure>
  <varray name="forces" >
   <v>       0.00208958      -0.00378625       0.00865698 </v>
   <v>       0.00069948      -0.00044982       0.00619107 </v>
   <v>      -0.00690021       0.00816880       0.02824469 </v>
   <v>      -0.00476616      -0.01313012       0.03951997 </v>
   <v>       0.00833031       0.00505344      -0.04991046 </v>
   <v>       0.00943060       0.00160895      -0.04844441 </v>
   <v>       0.00720457       0.00080727      -0.01867435 </v>
   <v>      -0.00202843       0.00101518       0.00426247 </v>
   <v>      -0.00020924      -0.01281388       0.02290275 </v>
   <v>      -0.01174247      -0.01316830       0.04933785 </v>
   <v>      -0.00210930      -0.00406596       0.00046819 </v>
   <v>      -0.00261329       0.01475160       0.02163269 </v>
   <v>      -0.01676931       0.00733663       0.04353833 </v>
   <v>       0.00210251       0.00402061      -0.04444278 </v>
   <v>       0.00338672      -0.00026895      -0.01553800 </v>
   <v>       0.00740173       0.00564301      -0.05751272 </v>
   <v>       0.00649291      -0.00072219       0.00976772 </v>
  </varray>
  <varray name="stress" >
   <v>      -0.77873655       0.01164632      -0.05431342 </v>
   <v>       0.01164632      -0.75517935      -0.01404997 </v>
   <v>      -0.05431342      -0.01404997      -0.63113169 </v>
  </varray>
  <energy>
   <i name="e_fr_energy">   -101.87109794 </i>
   <i name="e_wo_entrp">   -101.87109794 </i>
   <i name="e_0_energy">   -101.87109794 </i>
  </energy>
  <time name="totalsc">   15.93   22.23</time>
 </calculation>
 <calculation>
  <scstep>
   <time name="dav">    2.30    2.48</time>
   <time name="total">    4.59    6.19</time>
   <energy>
    <i name="alphaZ">      2.15216506 </i>
    <i name="ewald">   2146.02092301 </i>
    <i name="hartreedc">  -3278.04146233 </i>
    <i name="XCdc">    138.85158138 </i>
    <i name="pawpsdc">   3469.07315237 </i>
    <i name="pawaedc">  -3475.41588792 </i>
    <i name="eentropy">     -0.00000000 </i>
    <i name="bandstr">   -510.96649005 </i>
    <i name="atom">   1406.67326350 </i>
    <i name="e_fr_energy">   -101.65275498 </i>
    <i name="e_wo_entrp">   -101.65275498 </i>
    <i name="e_0_energy">   -101.65275498 </i>
   </energy>
  </scstep>
  <scstep>
   <time name="diag">    0.14    0.29</time>
   <time name="diis">    0.62    1.06</time>
   <time name="orth">    0.01    0.01</time>
   <time name="total">    2.77    3.88</time>
   <energy>
    <i name="alphaZ">      2.15216506 </i>
    <i name="ewald">   2146.02092301 </i>
    <i name="hartreedc">  -3278.04232581 </i>
    <i name="XCdc">    138.85177584 </i>
    <i name="pawpsdc">   3469.13390610 </i>
    <i name="pawaedc">  -3475.47666001 </i>
    <i name="eentropy">     -0.00000000 </i>
    <i name="bandstr">   -510.96580723 </i>
    <i name="atom">   1406.67326350 </i>
    <i name="e_fr_energy">   -101.65275953 </i>
    <i name="e_wo_entrp">   -101.65275953 </i>
    <i name="e_0_energy">   -101.65275953 </i>
   </energy>
  </scstep>
  <structure>
   <crystal>
    <varray name="basis" >
     <v>      15.40225029       0.00000000       0.00000000 </v>
     <v>       0.00000000      15.40225029       0.00000000 </v>
     <v>       0.00000000       0.00000000      15.40225029 </v>
    </varray>
    <i name="volume">   3653.86527022 </i>
    <varray name="rec_basis" >
     <v>       0.06492558       0.00000000       0.00000000 </v>
     <v>       0.00000000       0.06492558       0.00000000 </v>
     <v>       0.00000000       0.00000000       0.06492558 </v>
    </varray>
   </crystal>
   <varray name="positions" >
    <v>       0.33692780       0.43813520       0.57990735 </v>
    <v>       0.33254763       0.53283143       0.58227574 </v>
    <v>       0.40028611       0.58797777       0.57878994 </v>
    <v>       0.40948304       0.38956269       0.57519384 </v>
    <v>       0.46215600       0.44047632       0.39443868 </v>
    <v>       0.45969070       0.52771831       0.39542499 </v>
    <v>       0.53515166       0.58021061       0.40472087 </v>
    <v>       0.27425820       0.40458311       0.57964959 </v>
    <v>       0.47428066       0.41825944       0.57647187 </v>
    <v>       0.40618563       0.31898336       0.57073208 </v>
    <v>       0.26708648       0.56042367       0.58483433 </v>
    <v>       0.46749584       0.56556832       0.57691708 </v>
    <v>       0.39069460       0.65811206       0.57786214 </v>
    <v>       0.40271752       0.40283188       0.38784329 </v>
    <v>       0.52316030       0.40496764       0.40017255 </v>
    <v>       0.39818737       0.56267925       0.39092159 </v>
    <v>       0.59624668       0.62471725       0.41287226 </v>
   </varray>
  </structure>
  <varray name="forces" >
   <v>      -0.00055211      -0.00318673       0.01052817 </v>
   <v>       0.00015609       0.00187861       0.00788010 </v>
   <v>      -0.00711344       0.00695410       0.03084116 </v>
   <v>      -0.00670965      -0.01307896       0.04275937 </v>
   <v>       0.01175815       0.00453073      -0.05140571 </v>
   <v>       0.01054093      -0.00020043      -0.04925527 </v>
   <v>       0.00580895       0.00054285      -0.01932566 </v>
   <v>      -0.00211484       0.00108247       0.00568495 </v>
   <v>      -0.00089830      -0.01270051       0.02226982 </v>
   <v>      -0.01199549      -0.01313234       0.04896796 </v>
   <v>      -0.00169881      -0.00367317       0.00194218 </v>
   <v>      -0.00238167       0.01379469       0.02076305 </v>
   <v>      -0.01578113       0.00692660       0.04313191 </v>
   <v>       0.00292202       0.00378469      -0.04338614 </v>
   <v>       0.00437740      -0.00020735      -0.01611726 </v>
   <v>       0.00737641       0.00522390      -0.05521288 </v>
   <v>       0.00630548       0.00146087      -0.00006576 </v>
  </varray>
  <varray name="stress" >
   <v>      -0.77865158       0.01215558      -0.06249335 </v>
   <v>       0.01215557      -0.75477973      -0.01474479 </v>
   <v>      -0.06249335      -0.01474479      -0.63277842 </v>
  </varray>
  <energy>
   <i name="e_fr_energy">   -101.87134342 </i>
   <i name="e_wo_entrp">   -101.87134342 </i>
   <i name="e_0_energy">   -101.87134342 </i>
  </energy>
  <time name="totalsc">   13.70   18.24</time>
  <eigenvalues>
   <array>
    <dimension dim="1">band</dimension>
    <dimension dim="2">kpoint</dimension>
    <dimension dim="3">spin</dimension>
    <field>eigene</field>
    <field>occ</field>
    <set>
     <set comment="spin 1">
      <set comment="kpoint 1">
       <r>  -22.3533    1.0000 </r>
       <r>  -20.1012    1.0000 </r>
       <r>  -19.8813    1.0000 </r>
       <r>  -18.0580    1.0000 </r>
       <r>  -15.9837    1.0000 </r>
       <r>  -15.3995    1.0000 </r>
       <r>  -13.0012    1.0000 </r>
       <r>  -12.8905    1.0000 </r>
       <r>  -12.1443    1.0000 </r>
       <r>  -11.4314    1.0000 </r>
       <r>  -10.8098    1.0000 </r>
       <r>  -10.1738    1.0000 </r>
       <r>   -9.7429    1.0000 </r>
       <r>   -9.2044    1.0000 </r>
       <r>   -8.7110    1.0000 </r>
       <r>   -8.4974    1.0000 </r>
       <r>   -8.3216    1.0000 </r>
       <r>   -8.1363    1.0000 </r>
       <r>   -7.9597    1.0000 </r>
       <r>   -6.7995    1.0000 </r>
       <r>   -5.8821    1.0000 </r>
       <r>   -2.3611    0.0000 </r>
       <r>   -2.2049    0.0000 </r>
       <r>   -0.6832    0.0000 </r>
       <r>   -0.2307    0.0000 </r>
       <r>   -0.0855    0.0000 </r>
       <r>    0.0724    0.0000 </r>
       <r>    0.2963    0.0000 </r>
       <r>    0.4254    0.0000 </r>
       <r>    0.4927    0.0000 </r>
      </set>
     </set>
    </set>
   </array>
  </eigenvalues>
  <separator name="orbital magnetization" >
   <v name="MAGDIPOLOUT">      0.00000000      0.00000000      0.00000000</v>
  </separator>
 </calculation>
 <structure name="finalpos" >
  <crystal>
   <varray name="basis" >
    <v>      15.40225029       0.00000000       0.00000000 </v>
    <v>       0.00000000      15.40225029       0.00000000 </v>
    <v>       0.00000000       0.00000000      15.40225029 </v>
   </varray>
   <i name="volume">   3653.86527022 </i>
   <varray name="rec_basis" >
    <v>       0.06492558       0.00000000       0.00000000 </v>
    <v>       0.00000000       0.06492558       0.00000000 </v>
    <v>       0.00000000       0.00000000       0.06492558 </v>
   </varray>
  </crystal>
  <varray name="positions" >
   <v>       0.33692780       0.43813520       0.57990735 </v>
   <v>       0.33254763       0.53283143       0.58227574 </v>
   <v>       0.40028611       0.58797777       0.57878994 </v>
   <v>       0.40948304       0.38956269       0.57519384 </v>
   <v>       0.46215600       0.44047632       0.39443868 </v>
   <v>       0.45969070       0.52771831       0.39542499 </v>
   <v>       0.53515166       0.58021061       0.40472087 </v>
   <v>       0.27425820       0.40458311       0.57964959 </v>
   <v>       0.47428066       0.41825944       0.57647187 </v>
   <v>       0.40618563       0.31898336       0.57073208 </v>
   <v>       0.26708648       0.56042367       0.58483433 </v>
   <v>       0.46749584       0.56556832       0.57691708 </v>
   <v>       0.39069460       0.65811206       0.57786214 </v>
   <v>       0.40271752       0.40283188       0.38784329 </v>
   <v>       0.52316030       0.40496764       0.40017255 </v>
   <v>       0.39818737       0.56267925       0.39092159 </v>
   <v>       0.59624668       0.62471725       0.41287226 </v>
  </varray>
 </structure>
</modeling>
