unknown system                          
           1
    15.402250    0.000000    0.000000
     0.000000   15.402250    0.000000
     0.000000    0.000000   15.402250
   C    H    N 
     7     9     1
Direct configuration=     1
   0.33782948  0.43810085  0.57665457
   0.33340781  0.53210180  0.57872688
   0.40252703  0.58488531  0.57120636
   0.41177284  0.39244298  0.56734058
   0.45894874  0.44064255  0.40718604
   0.45687514  0.52794742  0.40827741
   0.53295084  0.57963934  0.41199132
   0.27565250  0.40429616  0.57618128
   0.47385715  0.42571837  0.56847252
   0.41285634  0.32248202  0.55816099
   0.26854855  0.56015721  0.57967705
   0.46820580  0.55909915  0.56868294
   0.39699014  0.65498417  0.56540109
   0.39966891  0.40306684  0.40548565
   0.51984955  0.40528898  0.40865583
   0.39608342  0.56345126  0.40874351
   0.59463749  0.62378969  0.41604391
Direct configuration=     2
   0.33766900  0.43808061  0.57672937
   0.33333619  0.53215551  0.57885105
   0.40248945  0.58501933  0.57143942
   0.41158036  0.39232705  0.56761075
   0.45911909  0.44062061  0.40661755
   0.45704831  0.52788787  0.40773334
   0.53302989  0.57970441  0.41164329
   0.27546026  0.40428188  0.57631679
   0.47386879  0.42561617  0.56836188
   0.41260579  0.32231775  0.55845197
   0.26837501  0.56026736  0.57998633
   0.46818742  0.55911116  0.56857537
   0.39688413  0.65513319  0.56568172
   0.39971768  0.40295782  0.40528139
   0.52013907  0.40518100  0.40820601
   0.39601429  0.56341161  0.40868113
   0.59465841  0.62401426  0.41580438
Direct configuration=     3
   0.33744625  0.43805915  0.57684540
   0.33321506  0.53227085  0.57903054
   0.40241525  0.58516783  0.57177034
   0.41135329  0.39217789  0.56799721
   0.45938360  0.44050697  0.40578268
   0.45721340  0.52786491  0.40694664
   0.53321593  0.57984660  0.41111824
   0.27518187  0.40426896  0.57652139
   0.47380992  0.42542346  0.56820242
   0.41223074  0.32209370  0.55889107
   0.26816927  0.56041260  0.58044390
   0.46813194  0.55914996  0.56842164
   0.39672803  0.65534752  0.56610942
   0.39984393  0.40283021  0.40497658
   0.52051154  0.40505660  0.40752515
   0.39599908  0.56330103  0.40857937
   0.59462205  0.62429969  0.41544664
Direct configuration=     4
   0.33731826  0.43805221  0.57692269
   0.33313416  0.53234314  0.57914392
   0.40236016  0.58525353  0.57196938
   0.41121054  0.39208910  0.56823411
   0.45955043  0.44045824  0.40525520
   0.45732190  0.52783154  0.40645687
   0.53325496  0.57988404  0.41076723
   0.27501054  0.40426601  0.57665550
   0.47374710  0.42528485  0.56810571
   0.41198914  0.32196332  0.55917875
   0.26805767  0.56050072  0.58073724
   0.46808212  0.55918541  0.56832853
   0.39662913  0.65547222  0.56639253
   0.39994665  0.40275903  0.40477786
   0.52073190  0.40498940  0.40707896
   0.39601305  0.56321627  0.40850626
   0.59465567  0.62452268  0.41522152
Direct configuration=     5
   0.33721627  0.43805402  0.57699670
   0.33306090  0.53240432  0.57924454
   0.40229938  0.58532086  0.57213185
   0.41108046  0.39201488  0.56843262
   0.45969776  0.44042562  0.40478913
   0.45740636  0.52778294  0.40603248
   0.53333923  0.57995726  0.41044038
   0.27486735  0.40427180  0.57678141
   0.47366271  0.42514208  0.56802631
   0.41176822  0.32186196  0.55944803
   0.26797968  0.56057535  0.58100311
   0.46801931  0.55923117  0.56825170
   0.39654070  0.65556809  0.56666131
   0.40006815  0.40270885  0.40459207
   0.52090760  0.40494612  0.40666030
   0.39605524  0.56312043  0.40842816
   0.59462695  0.62468029  0.41501363
Direct configuration=     6
   0.33696788  0.43807744  0.57719846
   0.33289108  0.53253268  0.57949539
   0.40211354  0.58547466  0.57249036
   0.41072387  0.39183247  0.56888770
   0.46007220  0.44033002  0.40364167
   0.45764863  0.52768652  0.40501220
   0.53346788  0.58009027  0.40956342
   0.27454890  0.40431690  0.57711899
   0.47340290  0.42474259  0.56785499
   0.41119596  0.32164169  0.56016227
   0.26782933  0.56075765  0.58168193
   0.46781859  0.55938459  0.56808248
   0.39631399  0.65576618  0.56738611
   0.40044555  0.40261496  0.40409486
   0.52129664  0.40488663  0.40554329
   0.39622442  0.56283212  0.40818539
   0.59456262  0.62508412  0.41448141
Direct configuration=     7
   0.33649719  0.43812293  0.57756920
   0.33259011  0.53274368  0.57994838
   0.40178036  0.58575098  0.57310667
   0.41005098  0.39150642  0.56967815
   0.46075518  0.44020397  0.40160087
   0.45812626  0.52749034  0.40319744
   0.53370379  0.58033441  0.40795945
   0.27399034  0.40441212  0.57774854
   0.47295437  0.42401435  0.56757657
   0.41014488  0.32123116  0.56147522
   0.26755752  0.56108995  0.58291435
   0.46745672  0.55967762  0.56780067
   0.39588909  0.65611974  0.56872536
   0.40111207  0.40243278  0.40316453
   0.52202325  0.40477992  0.40348065
   0.39651317  0.56231283  0.40770325
   0.59443181  0.62580183  0.41350441
Direct configuration=     8
   0.33630504  0.43814772  0.57772336
   0.33246905  0.53281957  0.58013076
   0.40164152  0.58585463  0.57332821
   0.40977410  0.39138121  0.56996545
   0.46102994  0.44014525  0.40080988
   0.45831982  0.52742939  0.40249879
   0.53380918  0.58044054  0.40730109
   0.27377627  0.40446065  0.57801589
   0.47276978  0.42370817  0.56749096
   0.40971053  0.32106751  0.56201946
   0.26746076  0.56122034  0.58341190
   0.46730697  0.55981110  0.56770701
   0.39570950  0.65625147  0.56928454
   0.40139120  0.40236529  0.40276576
   0.52231531  0.40474782  0.40261810
   0.39664331  0.56209255  0.40747384
   0.59435729  0.62607113  0.41310105
Direct configuration=     9
   0.33604042  0.43817792  0.57792961
   0.33230269  0.53292567  0.58037913
   0.40145976  0.58599753  0.57362887
   0.40940413  0.39121147  0.57034752
   0.46140244  0.44006389  0.39975225
   0.45857859  0.52735285  0.40155819
   0.53395114  0.58058096  0.40641801
   0.27347697  0.40452226  0.57838183
   0.47253642  0.42329888  0.56738601
   0.40911850  0.32083532  0.56275561
   0.26731906  0.56139727  0.58408402
   0.46711906  0.55998920  0.56758673
   0.39546071  0.65643762  0.57003891
   0.40175110  0.40226587  0.40221511
   0.52273124  0.40469379  0.40144644
   0.39680380  0.56180619  0.40715087
   0.59427080  0.62644322  0.41255237
Direct configuration=    10
   0.33589818  0.43820084  0.57804521
   0.33221137  0.53297646  0.58051608
   0.40135752  0.58606902  0.57376574
   0.40920153  0.39112463  0.57051594
   0.46160300  0.44002814  0.39921635
   0.45871973  0.52731173  0.40108272
   0.53400020  0.58063906  0.40592461
   0.27331828  0.40456373  0.57860022
   0.47240916  0.42306078  0.56736586
   0.40878105  0.32071082  0.56317251
   0.26725135  0.56148895  0.58445187
   0.46701983  0.56010342  0.56754711
   0.39531349  0.65652846  0.57046763
   0.40195164  0.40221519  0.40187696
   0.52296266  0.40467070  0.40076830
   0.39689694  0.56164764  0.40692464
   0.59424045  0.62665228  0.41223937
Direct configuration=    11
   0.33570206  0.43823163  0.57820647
   0.33208511  0.53305009  0.58070817
   0.40121124  0.58617000  0.57396135
   0.40891593  0.39100100  0.57075436
   0.46188537  0.43997309  0.39846072
   0.45890896  0.52724746  0.40041134
   0.53411994  0.58076041  0.40523645
   0.27309484  0.40462086  0.57890848
   0.47222976  0.42272219  0.56734029
   0.40830627  0.32053944  0.56375931
   0.26715614  0.56161809  0.58497023
   0.46688022  0.56026654  0.56749432
   0.39510609  0.65665508  0.57106956
   0.40223677  0.40214624  0.40139515
   0.52328083  0.40464101  0.39981408
   0.39702802  0.56142549  0.40660075
   0.59415443  0.62691195  0.41179270
Direct configuration=    12
   0.33546445  0.43827491  0.57840707
   0.33193060  0.53313356  0.58094656
   0.40102586  0.58629009  0.57417643
   0.40856144  0.39085252  0.57100338
   0.46223296  0.43990826  0.39757620
   0.45914700  0.52717315  0.39962535
   0.53420610  0.58086833  0.40437395
   0.27282538  0.40469914  0.57931439
   0.47201240  0.42227970  0.56736308
   0.40770116  0.32033402  0.56450456
   0.26704853  0.56177174  0.58561324
   0.46671342  0.56049383  0.56746989
   0.39483367  0.65679775  0.57183268
   0.40259610  0.40206691  0.40073952
   0.52367136  0.40461489  0.39858831
   0.39719403  0.56115250  0.40612545
   0.59409283  0.62725505  0.41122366
Direct configuration=    13
   0.33534701  0.43830077  0.57850926
   0.33185332  0.53317069  0.58106928
   0.40092757  0.58635035  0.57427561
   0.40837945  0.39077800  0.57110528
   0.46241026  0.43987723  0.39715379
   0.45926414  0.52712958  0.39924954
   0.53426972  0.58094241  0.40393535
   0.27269420  0.40474334  0.57953964
   0.47190668  0.42203291  0.56741880
   0.40737913  0.32023583  0.56490040
   0.26700005  0.56184521  0.58594425
   0.46663261  0.56063094  0.56749234
   0.39468200  0.65686099  0.57223503
   0.40278592  0.40203038  0.40035432
   0.52386458  0.40460988  0.39793376
   0.39728046  0.56101667  0.40582237
   0.59404123  0.62740384  0.41091292
Direct configuration=    14
   0.33520094  0.43833083  0.57863514
   0.33175812  0.53321890  0.58122048
   0.40080603  0.58642542  0.57440410
   0.40815370  0.39068509  0.57124123
   0.46263089  0.43983871  0.39662120
   0.45941315  0.52707938  0.39877660
   0.53433129  0.58101929  0.40339295
   0.27253070  0.40479661  0.57981359
   0.47177622  0.42173211  0.56747808
   0.40698386  0.32011189  0.56538643
   0.26693777  0.56193733  0.58635314
   0.46653198  0.56079607  0.56751330
   0.39449666  0.65694292  0.57272941
   0.40301840  0.40198309  0.39988793
   0.52410549  0.40460130  0.39713289
   0.39738605  0.56084893  0.40546026
   0.59399384  0.62760215  0.41053549
Direct configuration=    15
   0.33512586  0.43835190  0.57870393
   0.33170809  0.53323842  0.58130568
   0.40073263  0.58646625  0.57446385
   0.40802644  0.39063520  0.57128304
   0.46275476  0.43982124  0.39636894
   0.45949763  0.52705231  0.39855358
   0.53434656  0.58105128  0.40309522
   0.27245037  0.40483215  0.57999300
   0.47171592  0.42153245  0.56758367
   0.40674382  0.32005107  0.56568013
   0.26691181  0.56197999  0.58658329
   0.46648472  0.56092147  0.56758400
   0.39437218  0.65697611  0.57302327
   0.40315439  0.40196023  0.39954604
   0.52423362  0.40460738  0.39664790
   0.39744594  0.56076372  0.40516039
   0.59398203  0.62770385  0.41030116
Direct configuration=    16
   0.33504096  0.43837502  0.57878037
   0.33165206  0.53326118  0.58140038
   0.40065161  0.58651254  0.57453695
   0.40788527  0.39057865  0.57133966
   0.46289281  0.43980117  0.39607799
   0.45958798  0.52702026  0.39829689
   0.53439611  0.58111037  0.40276885
   0.27235944  0.40487014  0.58018963
   0.47164996  0.42131255  0.56769581
   0.40647779  0.31997991  0.56600534
   0.26688049  0.56202841  0.58683962
   0.46643231  0.56105833  0.56765952
   0.39423394  0.65701754  0.57334896
   0.40330377  0.40193280  0.39917020
   0.52437922  0.40461168  0.39611474
   0.39751099  0.56066924  0.40483352
   0.59394521  0.62779972  0.41003983
Direct configuration=    17
   0.33496719  0.43840066  0.57885057
   0.33160248  0.53327600  0.58149058
   0.40057005  0.58655709  0.57460346
   0.40775201  0.39052564  0.57137042
   0.46302490  0.43978680  0.39583995
   0.45967688  0.52699375  0.39809041
   0.53441403  0.58114489  0.40247050
   0.27228423  0.40491000  0.58040130
   0.47160543  0.42107102  0.56788071
   0.40620572  0.31991668  0.56633601
   0.26685712  0.56206498  0.58708344
   0.46639446  0.56122289  0.56779778
   0.39407832  0.65704940  0.57367525
   0.40344836  0.40190752  0.39872466
   0.52451428  0.40462455  0.39557967
   0.39757022  0.56059201  0.40441834
   0.59394106  0.62789054  0.40977074
Direct configuration=    18
   0.33492920  0.43841820  0.57889045
   0.33157573  0.53328022  0.58154469
   0.40051890  0.58658676  0.57464988
   0.40767530  0.39049265  0.57138166
   0.46310417  0.43978077  0.39572070
   0.45972732  0.52697971  0.39799151
   0.53443924  0.58117488  0.40231210
   0.27224816  0.40493494  0.58054605
   0.47159738  0.42089906  0.56805939
   0.40602697  0.31987900  0.56655139
   0.26684588  0.56207881  0.58722833
   0.46638359  0.56135034  0.56794076
   0.39396249  0.65706689  0.57388407
   0.40353495  0.40189118  0.39838049
   0.52459528  0.40463765  0.39524571
   0.39760166  0.56055827  0.40407985
   0.59393880  0.62792236  0.40959056
Direct configuration=    19
   0.33489401  0.43843563  0.57892924
   0.33155074  0.53328369  0.58159739
   0.40046908  0.58661677  0.57469872
   0.40760253  0.39045981  0.57139461
   0.46318097  0.43977560  0.39560740
   0.45977749  0.52696758  0.39789880
   0.53445356  0.58119496  0.40216273
   0.27221499  0.40495875  0.58068946
   0.47159428  0.42072603  0.56824833
   0.40585007  0.31984132  0.56676421
   0.26683492  0.56209049  0.58736823
   0.46637605  0.56148043  0.56809411
   0.39384433  0.65708499  0.57408988
   0.40361869  0.40187493  0.39802833
   0.52467441  0.40465133  0.39492202
   0.39763093  0.56052878  0.40373091
   0.59395001  0.62795804  0.40941343
Direct configuration=    20
   0.33487348  0.43845218  0.57896226
   0.33153390  0.53328188  0.58164436
   0.40042376  0.58664937  0.57475755
   0.40754659  0.39042720  0.57140743
   0.46324733  0.43977493  0.39553129
   0.45982041  0.52696252  0.39784435
   0.53445888  0.58120188  0.40206121
   0.27219848  0.40497926  0.58083399
   0.47161799  0.42053973  0.56850415
   0.40567655  0.31980678  0.56697125
   0.26682772  0.56208969  0.58748575
   0.46638612  0.56163184  0.56831106
   0.39371008  0.65710188  0.57428601
   0.40369062  0.40185899  0.39761725
   0.52474361  0.40467028  0.39463393
   0.39765032  0.56052152  0.40330725
   0.59398746  0.62797755  0.40924173
Direct configuration=    21
   0.33485448  0.43846710  0.57899453
   0.33151805  0.53328121  0.58168923
   0.40038144  0.58668105  0.57481615
   0.40749462  0.39039565  0.57142508
   0.46330947  0.43977337  0.39545403
   0.45985745  0.52695560  0.39778785
   0.53448971  0.58122747  0.40196868
   0.27218242  0.40499787  0.58096756
   0.47163964  0.42036517  0.56874230
   0.40551394  0.31977281  0.56716592
   0.26681996  0.56208941  0.58759595
   0.46639488  0.56177342  0.56851427
   0.39358373  0.65711971  0.57447086
   0.40375870  0.40184413  0.39723196
   0.52480954  0.40468762  0.39436788
   0.39766922  0.56051392  0.40291163
   0.59400250  0.62798039  0.40907960
Direct configuration=    22
   0.33485546  0.43848016  0.57902125
   0.33151296  0.53327491  0.58172743
   0.40034583  0.58671747  0.57489186
   0.40746653  0.39036342  0.57145101
   0.46335701  0.43977700  0.39541705
   0.45988667  0.52695903  0.39777394
   0.53450145  0.58122838  0.40193957
   0.27218783  0.40501094  0.58109689
   0.47169438  0.42017569  0.56906192
   0.40535856  0.31974097  0.56735160
   0.26681568  0.56207342  0.58767511
   0.46642475  0.56194056  0.56879813
   0.39343732  0.65713896  0.57464260
   0.40381181  0.40183055  0.39677519
   0.52486281  0.40471107  0.39416066
   0.39767741  0.56053364  0.40242665
   0.59406092  0.62796942  0.40892975
Direct configuration=    23
   0.33487728  0.43848749  0.57903855
   0.33152050  0.53326552  0.58175092
   0.40032605  0.58675093  0.57496983
   0.40747041  0.39033739  0.57148665
   0.46337707  0.43978540  0.39542238
   0.45989550  0.52696738  0.39779829
   0.53453181  0.58123463  0.40198606
   0.27221388  0.40501435  0.58118415
   0.47176717  0.42002071  0.56937817
   0.40525217  0.31971767  0.56748081
   0.26681530  0.56204605  0.58770133
   0.46646664  0.56208985  0.56908989
   0.39330849  0.65715716  0.57475804
   0.40383738  0.40182282  0.39636464
   0.52488962  0.40473448  0.39407506
   0.39767518  0.56057417  0.40197988
   0.59411398  0.62792072  0.40883115
Direct configuration=    24
   0.33489666  0.43848354  0.57903203
   0.33153171  0.53326171  0.58174053
   0.40033755  0.58675086  0.57497682
   0.40749714  0.39034089  0.57149611
   0.46335585  0.43979037  0.39545934
   0.45988463  0.52697621  0.39783378
   0.53451347  0.58121137  0.40204866
   0.27223355  0.40500677  0.58115602
   0.47178824  0.42003701  0.56940132
   0.40528474  0.31972311  0.56744417
   0.26681892  0.56203417  0.58765887
   0.46648008  0.56208720  0.56912037
   0.39331291  0.65715742  0.57472041
   0.40381601  0.40182720  0.39637007
   0.52486910  0.40473657  0.39416972
   0.39766630  0.56059504  0.40197566
   0.59414432  0.62790852  0.40886948
Direct configuration=    25
   0.33491393  0.43848272  0.57903129
   0.33154070  0.53325708  0.58173816
   0.40034106  0.58675716  0.57499641
   0.40751566  0.39033823  0.57150957
   0.46334546  0.43979552  0.39548483
   0.45987618  0.52698104  0.39786165
   0.53453005  0.58121473  0.40210220
   0.27225189  0.40500233  0.58115299
   0.47181611  0.42001855  0.56947660
   0.40528664  0.31972191  0.56744443
   0.26682136  0.56202089  0.58763486
   0.46649677  0.56211383  0.56919635
   0.39329137  0.65716131  0.57471749
   0.40380632  0.40182882  0.39629569
   0.52486011  0.40474245  0.39421846
   0.39766000  0.56061642  0.40188854
   0.59415599  0.62787603  0.40887399
Direct configuration=    26
   0.33493820  0.43848042  0.57902989
   0.33155358  0.53325128  0.58173326
   0.40034779  0.58676405  0.57502056
   0.40754270  0.39033612  0.57152836
   0.46332903  0.43980204  0.39552135
   0.45986805  0.52699088  0.39790006
   0.53452303  0.58119638  0.40217562
   0.27227796  0.40499560  0.58114045
   0.47185219  0.42000403  0.56956360
   0.40529903  0.31972235  0.56743406
   0.26682554  0.56200315  0.58759569
   0.46651850  0.56214168  0.56928683
   0.39327004  0.65716574  0.57470348
   0.40378961  0.40183237  0.39621763
   0.52484413  0.40474965  0.39430056
   0.39765073  0.56064572  0.40179457
   0.59419207  0.62784909  0.40889306
Direct configuration=    27
   0.33528181  0.43845013  0.57902543
   0.33173602  0.53316748  0.58168171
   0.40043270  0.58687817  0.57538397
   0.40791979  0.39029228  0.57180926
   0.46310110  0.43990759  0.39600828
   0.45972811  0.52711360  0.39841558
   0.53460228  0.58106926  0.40320077
   0.27264492  0.40490495  0.58098837
   0.47236865  0.41974702  0.57086215
   0.40543114  0.31971279  0.56734596
   0.26688208  0.56175029  0.58706303
   0.46682436  0.56257920  0.57062949
   0.39292922  0.65723533  0.57456235
   0.40356872  0.40188053  0.39499650
   0.52463638  0.40485469  0.39540598
   0.39753190  0.56105427  0.40035105
   0.59457563  0.62735436  0.40911984
Direct configuration=    28
   0.33525431  0.43845102  0.57903654
   0.33172211  0.53317555  0.58169371
   0.40042429  0.58687115  0.57535796
   0.40788815  0.39029211  0.57179696
   0.46311709  0.43989711  0.39594625
   0.45974179  0.52711302  0.39834818
   0.53456007  0.58105277  0.40309362
   0.27261350  0.40491375  0.58099134
   0.47231806  0.41976804  0.57074164
   0.40542201  0.31970869  0.56736118
   0.26687889  0.56177262  0.58710371
   0.46679070  0.56254359  0.57051106
   0.39295900  0.65723248  0.57458336
   0.40359290  0.40188285  0.39510147
   0.52465252  0.40484619  0.39532351
   0.39755347  0.56101241  0.40048373
   0.59456932  0.62741671  0.40911396
Direct configuration=    29
   0.33528835  0.43844718  0.57904200
   0.33174051  0.53316753  0.58169295
   0.40043129  0.58688394  0.57539602
   0.40792399  0.39028514  0.57183037
   0.46309452  0.43990907  0.39598159
   0.45972640  0.52712367  0.39838389
   0.53458196  0.58105196  0.40318370
   0.27264859  0.40490565  0.58097176
   0.47236481  0.41974260  0.57086175
   0.40543536  0.31970489  0.56735774
   0.26688507  0.56174862  0.58705029
   0.46681667  0.56258667  0.57063851
   0.39292614  0.65724098  0.57457541
   0.40357320  0.40188995  0.39498348
   0.52463164  0.40485662  0.39543529
   0.39754601  0.56104897  0.40034900
   0.59459271  0.62735867  0.40913975
Direct configuration=    30
   0.33531188  0.43844367  0.57905429
   0.33175366  0.53316328  0.58169867
   0.40043378  0.58689501  0.57542670
   0.40794628  0.39027725  0.57186301
   0.46308088  0.43991833  0.39598846
   0.45972066  0.52713198  0.39838723
   0.53458626  0.58104255  0.40322985
   0.27267190  0.40490139  0.58095122
   0.47239194  0.41972495  0.57093436
   0.40544564  0.31969861  0.56736275
   0.26689021  0.56173348  0.58701140
   0.46682918  0.56261715  0.57072049
   0.39290455  0.65724942  0.57457831
   0.40356213  0.40189857  0.39490386
   0.52461678  0.40486427  0.39551822
   0.39754615  0.56106998  0.40026534
   0.59461296  0.62732353  0.40916621
Direct configuration=    31
   0.33536728  0.43843514  0.57908504
   0.33178439  0.53315192  0.58171421
   0.40043968  0.58692265  0.57550171
   0.40799907  0.39025650  0.57194293
   0.46304873  0.43994063  0.39599954
   0.45970635  0.52715143  0.39838876
   0.53458793  0.58101428  0.40333209
   0.27272654  0.40489145  0.58090267
   0.47245606  0.41968142  0.57110684
   0.40546883  0.31968204  0.56737917
   0.26690206  0.56169723  0.58692009
   0.46685901  0.56269021  0.57091569
   0.39285200  0.65727030  0.57458967
   0.40353575  0.40191904  0.39471222
   0.52458227  0.40488196  0.39571433
   0.39754636  0.56111973  0.40006510
   0.59467150  0.62725060  0.40922868
Direct configuration=    32
   0.33556477  0.43840444  0.57919374
   0.33189395  0.53311205  0.58176977
   0.40046004  0.58702149  0.57577234
   0.40818633  0.39018196  0.57222979
   0.46293580  0.44001561  0.39603685
   0.45965390  0.52722148  0.39839137
   0.53462033  0.58093283  0.40369764
   0.27292049  0.40485629  0.58073201
   0.47268606  0.41952346  0.57172621
   0.40554882  0.31962199  0.56744211
   0.26694315  0.56156745  0.58659620
   0.46696735  0.56295315  0.57161526
   0.39266172  0.65734602  0.57463416
   0.40344122  0.40199124  0.39402195
   0.52446110  0.40494487  0.39640930
   0.39754424  0.56129894  0.39934304
   0.59485961  0.62697433  0.40944736
Direct configuration=    33
   0.33558179  0.43840065  0.57920802
   0.33190355  0.53310911  0.58177984
   0.40045947  0.58703350  0.57580809
   0.40819998  0.39017022  0.57226822
   0.46292995  0.44001706  0.39602098
   0.45965173  0.52723044  0.39836799
   0.53463502  0.58093388  0.40371480
   0.27293538  0.40485500  0.58071785
   0.47270595  0.41950186  0.57178578
   0.40554978  0.31961110  0.56746514
   0.26694568  0.56155481  0.58656954
   0.46697716  0.56298333  0.57168327
   0.39263823  0.65735743  0.57465479
   0.40343444  0.40199884  0.39394367
   0.52445356  0.40495062  0.39646620
   0.39754297  0.56131613  0.39926419
   0.59486999  0.62694451  0.40946662
Direct configuration=    34
   0.33558284  0.43840002  0.57921149
   0.33190419  0.53310916  0.58178271
   0.40045873  0.58703590  0.57581621
   0.40820039  0.39016739  0.57227712
   0.46293112  0.44001780  0.39601229
   0.45965354  0.52723130  0.39835684
   0.53463142  0.58092972  0.40371026
   0.27293593  0.40485555  0.58071684
   0.47270753  0.41949713  0.57179321
   0.40554765  0.31960816  0.56747350
   0.26694546  0.56155327  0.58656753
   0.46697800  0.56298880  0.57169202
   0.39263361  0.65735987  0.57466262
   0.40343435  0.40199985  0.39392963
   0.52445435  0.40495098  0.39646972
   0.39754284  0.56131819  0.39925074
   0.59487681  0.62694545  0.40947012
Direct configuration=    35
   0.33559372  0.43839718  0.57922286
   0.33191029  0.53310707  0.58179103
   0.40045785  0.58704588  0.57584440
   0.40820821  0.39015759  0.57230752
   0.46292859  0.44002256  0.39599319
   0.45965304  0.52723542  0.39833111
   0.53463558  0.58092608  0.40371382
   0.27294408  0.40485563  0.58070853
   0.47271937  0.41947993  0.57183327
   0.40554502  0.31959876  0.56749578
   0.26694604  0.56154491  0.58655145
   0.46698354  0.56301131  0.57173802
   0.39261549  0.65736834  0.57468301
   0.40343089  0.40200477  0.39387201
   0.52445190  0.40495405  0.39650238
   0.39754294  0.56132889  0.39919305
   0.59489020  0.62693069  0.40948420
Direct configuration=    36
   0.33567072  0.43837671  0.57931400
   0.33195608  0.53309703  0.58185732
   0.40044850  0.58711587  0.57606607
   0.40826586  0.39008504  0.57254655
   0.46291407  0.44005110  0.39584277
   0.45965476  0.52727021  0.39813414
   0.53466694  0.58089860  0.40374299
   0.27300936  0.40485668  0.58064777
   0.47281173  0.41934536  0.57214905
   0.40552450  0.31952684  0.56767248
   0.26695425  0.56147918  0.58642865
   0.46702736  0.56318781  0.57209901
   0.39247525  0.65743375  0.57484476
   0.40340989  0.40204490  0.39341819
   0.52443150  0.40498043  0.39675354
   0.39754794  0.56141090  0.39873779
   0.59498586  0.62681270  0.40958069
Direct configuration=    37
   0.33572246  0.43836385  0.57937569
   0.33198587  0.53308862  0.58190295
   0.40044220  0.58716563  0.57621572
   0.40830167  0.39003477  0.57270819
   0.46290494  0.44007225  0.39573458
   0.45965486  0.52729231  0.39799504
   0.53469172  0.58088353  0.40375566
   0.27305035  0.40485819  0.58060971
   0.47287093  0.41925261  0.57235969
   0.40550670  0.31947725  0.56779730
   0.26695874  0.56143580  0.58635014
   0.46705502  0.56330729  0.57233931
   0.39237983  0.65747717  0.57495949
   0.40339867  0.40207137  0.39311166
   0.52442029  0.40499773  0.39691260
   0.39755380  0.56146335  0.39842980
   0.59504656  0.62673396  0.40964203
Direct configuration=    38
   0.33568645  0.43837389  0.57933640
   0.33196444  0.53309256  0.58187521
   0.40044527  0.58713648  0.57611885
   0.40827178  0.39006538  0.57260402
   0.46291368  0.44006118  0.39579103
   0.45965519  0.52727645  0.39807354
   0.53467319  0.58089309  0.40373272
   0.27301781  0.40485902  0.58064105
   0.47282572  0.41930929  0.57221738
   0.40551025  0.31950787  0.56772719
   0.26695411  0.56146608  0.58641043
   0.46703309  0.56323004  0.57217572
   0.39244086  0.65744720  0.57489582
   0.40341285  0.40205288  0.39331122
   0.52443196  0.40498615  0.39678623
   0.39755545  0.56142313  0.39862876
   0.59500616  0.62679301  0.40959385
Direct configuration=    39
   0.33572560  0.43836424  0.57938596
   0.33198760  0.53308599  0.58191216
   0.40043874  0.58717647  0.57623808
   0.40829694  0.39002400  0.57273315
   0.46290865  0.44007852  0.39569719
   0.45965638  0.52729385  0.39795637
   0.53469325  0.58088220  0.40373496
   0.27304739  0.40486159  0.58061472
   0.47286896  0.41923332  0.57238237
   0.40549110  0.31946734  0.56783293
   0.26695702  0.56143248  0.58635307
   0.46705288  0.56332551  0.57236305
   0.39236406  0.65748148  0.57499337
   0.40340785  0.40207307  0.39306696
   0.52442501  0.40500030  0.39689907
   0.39756247  0.56146182  0.39838201
   0.59505213  0.62673338  0.40963775
Direct configuration=    40
   0.33576954  0.43835238  0.57945145
   0.33201460  0.53307982  0.58196264
   0.40042743  0.58722723  0.57639167
   0.40832068  0.38996962  0.57289996
   0.46290838  0.44010040  0.39555992
   0.45966303  0.52731544  0.39779275
   0.53471172  0.58086529  0.40372024
   0.27307954  0.40486754  0.58059014
   0.47291685  0.41913174  0.57258746
   0.40545706  0.31941333  0.56798174
   0.26695988  0.56139144  0.58629155
   0.46707436  0.56344833  0.57259414
   0.39226461  0.65752487  0.57513136
   0.40340945  0.40209712  0.39275375
   0.52442052  0.40501915  0.39701509
   0.39757582  0.56150548  0.39806370
   0.59511227  0.62666842  0.40968221
Direct configuration=    41
   0.33574271  0.43835931  0.57941710
   0.33199871  0.53308366  0.58193689
   0.40043168  0.58720023  0.57630953
   0.40830291  0.38999728  0.57281117
   0.46291202  0.44008877  0.39562279
   0.45966118  0.52730288  0.39787163
   0.53470538  0.58087852  0.40371733
   0.27305824  0.40486619  0.58060894
   0.47288611  0.41918339  0.57247345
   0.40546870  0.31944073  0.56791068
   0.26695755  0.56141474  0.58633196
   0.46706011  0.56338278  0.57246445
   0.39231696  0.65750146  0.57506587
   0.40341360  0.40208294  0.39292157
   0.52442591  0.40500947  0.39693405
   0.39757115  0.56147828  0.39823284
   0.59507424  0.62670563  0.40965081
Direct configuration=    42
   0.33576330  0.43835375  0.57945021
   0.33201148  0.53308027  0.58196267
   0.40042502  0.58722632  0.57638710
   0.40831189  0.38996852  0.57289589
   0.46291405  0.44009985  0.39554705
   0.45966556  0.52731321  0.39778369
   0.53471758  0.58087318  0.40370318
   0.27307189  0.40487049  0.58059978
   0.47290725  0.41913006  0.57257505
   0.40544699  0.31941211  0.56799164
   0.26695848  0.56139467  0.58630513
   0.46706931  0.56344521  0.57257809
   0.39226574  0.65752359  0.57514115
   0.40341730  0.40209421  0.39276264
   0.52442563  0.40501935  0.39698095
   0.39757888  0.56149838  0.39807048
   0.59510075  0.62667396  0.40966880
Direct configuration=    43
   0.33580189  0.43834084  0.57952819
   0.33203573  0.53307644  0.58202470
   0.40040907  0.58728176  0.57656300
   0.40832746  0.38990685  0.57308687
   0.46292272  0.44012361  0.39537076
   0.45967915  0.52733354  0.39758188
   0.53473902  0.58085697  0.40366540
   0.27310017  0.40488021  0.58058450
   0.47295132  0.41901372  0.57279382
   0.40539812  0.31935034  0.56817214
   0.26696088  0.56135219  0.58625219
   0.46708891  0.56358050  0.57282197
   0.39215554  0.65757070  0.57530893
   0.40342837  0.40211828  0.39241617
   0.52442692  0.40504109  0.39707128
   0.39759724  0.56154052  0.39771511
   0.59516122  0.62661139  0.40970050
Direct configuration=    44
   0.33578936  0.43834509  0.57951035
   0.33202840  0.53307693  0.58201119
   0.40041089  0.58726884  0.57652121
   0.40831732  0.38991969  0.57304234
   0.46292492  0.44011720  0.39540025
   0.45967851  0.52732844  0.39761941
   0.53473465  0.58086334  0.40366046
   0.27308776  0.40488000  0.58059517
   0.47293458  0.41903796  0.57273697
   0.40540128  0.31936283  0.56814006
   0.26695881  0.56136416  0.58627389
   0.46708102  0.56354842  0.57275689
   0.39218050  0.65755965  0.57527942
   0.40343160  0.40211083  0.39249820
   0.52443110  0.40503635  0.39702593
   0.39759521  0.56152633  0.39779757
   0.59514328  0.62663214  0.40968367
Direct configuration=    45
   0.33579961  0.43834204  0.57953316
   0.33203518  0.53307511  0.58202959