<?xml version="1.0" encoding="ISO-8859-1"?>
<modeling>
 <generator>
  <i name="program" type="string">vasp </i>
  <i name="version" type="string">6.3.2  </i>
  <i name="subversion" type="string">27Jun22 (build Dec 05 2023 10:50:29) complex                          parallel </i>
  <i name="platform" type="string">LinuxIFC </i>
  <i name="date" type="string">2023 12 13 </i>
  <i name="time" type="string">16:15:48 </i>
 </generator>
 <incar>
  <i type="string" name="ALGO">Fast</i>
  <i type="int" name="ISPIN">     1</i>
  <i name="ENCUT">    600.00000000</i>
  <i type="int" name="ISMEAR">     0</i>
  <i name="SIGMA">      0.05000000</i>
  <i type="logical" name="LWAVE"> F  </i>
  <i type="logical" name="LCHARG"> F  </i>
  <i type="string" name="GGA">PE</i>
  <i type="int" name="IVDW">    11</i>
 </incar>
 <primitive_cell>
  <structure name="primitive_cell" >
   <crystal>
    <varray name="basis" >
     <v>      26.80760000       0.00000000       0.00000000 </v>
     <v>       0.00000000      17.24010000       0.00000000 </v>
     <v>       0.00000000       0.00000000      16.88150000 </v>
    </varray>
    <i name="volume">   7802.05034491 </i>
    <varray name="rec_basis" >
     <v>       0.03730285       0.00000000       0.00000000 </v>
     <v>       0.00000000       0.05800430       0.00000000 </v>
     <v>       0.00000000       0.00000000       0.05923644 </v>
    </varray>
   </crystal>
   <varray name="positions" >
    <v>       0.68735674       0.46837206       0.53059606 </v>
    <v>       0.50270040       0.48669688       0.45605893 </v>
    <v>       0.45472570       0.53168863       0.48127213 </v>
    <v>       0.55445052       0.53098011       0.46600807 </v>
    <v>       0.40822196       0.47910157       0.49562226 </v>
    <v>       0.59404783       0.47843672       0.50365132 </v>
    <v>       0.36118296       0.52208706       0.52355621 </v>
    <v>       0.64562726       0.51638126       0.50821948 </v>
    <v>       0.31626954       0.46602074       0.52418616 </v>
    <v>       0.50612401       0.43105943       0.48716496 </v>
    <v>       0.49515792       0.46910900       0.39429105 </v>
    <v>       0.44398324       0.58311087       0.43330976 </v>
    <v>       0.46332518       0.56257146       0.53706635 </v>
    <v>       0.56819778       0.55624455       0.41106625 </v>
    <v>       0.54528287       0.57765716       0.51325205 </v>
    <v>       0.41470701       0.43377222       0.54266143 </v>
    <v>       0.39976785       0.44534648       0.43869993 </v>
    <v>       0.58097448       0.46138088       0.56420870 </v>
    <v>       0.59810447       0.42220067       0.47263554 </v>
    <v>       0.35631894       0.57390933       0.48160846 </v>
    <v>       0.36890320       0.54595336       0.58075238 </v>
    <v>       0.64156868       0.56984015       0.54898448 </v>
    <v>       0.65049366       0.53730289       0.44389492 </v>
    <v>       0.30559779       0.44504272       0.46419804 </v>
    <v>       0.28155012       0.49424589       0.54619787 </v>
    <v>       0.32231430       0.41629016       0.56502048 </v>
    <v>       0.71892657       0.50153287       0.53913258 </v>
    <v>       0.69224408       0.42134698       0.49473220 </v>
   </varray>
  </structure>
  <varray name="primitive_index" >
   <v type="int" >        1 </v>
   <v type="int" >        2 </v>
   <v type="int" >        3 </v>
   <v type="int" >        4 </v>
   <v type="int" >        5 </v>
   <v type="int" >        6 </v>
   <v type="int" >        7 </v>
   <v type="int" >        8 </v>
   <v type="int" >        9 </v>
   <v type="int" >       10 </v>
   <v type="int" >       11 </v>
   <v type="int" >       12 </v>
   <v type="int" >       13 </v>
   <v type="int" >       14 </v>
   <v type="int" >       15 </v>
   <v type="int" >       16 </v>
   <v type="int" >       17 </v>
   <v type="int" >       18 </v>
   <v type="int" >       19 </v>
   <v type="int" >       20 </v>
   <v type="int" >       21 </v>
   <v type="int" >       22 </v>
   <v type="int" >       23 </v>
   <v type="int" >       24 </v>
   <v type="int" >       25 </v>
   <v type="int" >       26 </v>
   <v type="int" >       27 </v>
   <v type="int" >       28 </v>
  </varray>
 </primitive_cell>
 <kpoints>
  <generation param="Gamma">
   <v type="int" name="divisions">       1        1        1 </v>
   <v name="usershift">      0.00000000       0.00000000       0.00000000 </v>
   <v name="genvec1">      1.00000000       0.00000000       0.00000000 </v>
   <v name="genvec2">      0.00000000       1.00000000       0.00000000 </v>
   <v name="genvec3">      0.00000000       0.00000000       1.00000000 </v>
   <v name="shift">      0.00000000       0.00000000       0.00000000 </v>
  </generation>
  <varray name="kpointlist" >
   <v>       0.00000000       0.00000000       0.00000000 </v>
  </varray>
  <varray name="weights" >
   <v>       1.00000000 </v>
  </varray>
 </kpoints>
 <parameters>
  <separator name="general" >
   <i type="string" name="SYSTEM">unknown system</i>
   <i type="logical" name="LCOMPAT"> F  </i>
  </separator>
  <separator name="electronic" >
   <i type="string" name="PREC">normal</i>
   <i name="ENMAX">    600.00000000</i>
   <i name="ENAUG">    644.87300000</i>
   <i name="EDIFF">      0.00010000</i>
   <i type="int" name="IALGO">    68</i>
   <i type="int" name="IWAVPR">    10</i>
   <i type="int" name="NBANDS">    44</i>
   <i type="int" name="NBANDSLOW">    -1</i>
   <i type="int" name="NBANDSHIGH">    -1</i>
   <i name="NELECT">     56.00000000</i>
   <i type="int" name="TURBO">     0</i>
   <i type="int" name="IRESTART">     0</i>
   <i type="int" name="NREBOOT">     0</i>
   <i type="int" name="NMIN">     0</i>
   <i name="EREF">      0.00000000</i>
   <separator name="electronic smearing" >
    <i type="int" name="ISMEAR">     0</i>
    <i name="SIGMA">      0.05000000</i>
    <i name="KSPACING">      0.50000000</i>
    <i type="logical" name="KGAMMA"> T  </i>
    <i type="logical" name="KBLOWUP"> T  </i>
   </separator>
   <separator name="electronic projectors" >
    <i type="logical" name="LREAL"> F  </i>
    <v name="ROPT">      0.00000000      0.00000000      0.00000000</v>
    <i type="int" name="LMAXPAW">  -100</i>
    <i type="int" name="LMAXMIX">     2</i>
    <i type="logical" name="NLSPLINE"> F  </i>
   </separator>
   <separator name="electronic startup" >
    <i type="int" name="ISTART">     0</i>
    <i type="int" name="ICHARG">     2</i>
    <i type="int" name="INIWAV">     1</i>
   </separator>
   <separator name="electronic spin" >
    <i type="int" name="ISPIN">     1</i>
    <i type="logical" name="LNONCOLLINEAR"> F  </i>
    <v name="MAGMOM">      1.00000000      1.00000000      1.00000000      1.00000000      1.00000000      1.00000000      1.00000000      1.00000000      1.00000000      1.00000000      1.00000000      1.00000000      1.00000000      1.00000000      1.00000000      1.00000000      1.00000000      1.00000000      1.00000000      1.00000000
      1.00000000      1.00000000      1.00000000      1.00000000      1.00000000      1.00000000      1.00000000      1.00000000</v>
    <i name="NUPDOWN">     -1.00000000</i>
    <i type="logical" name="LSORBIT"> F  </i>
    <v name="SAXIS">      0.00000000      0.00000000      1.00000000</v>
    <i type="logical" name="LSPIRAL"> F  </i>
    <v name="QSPIRAL">      0.00000000      0.00000000      0.00000000</v>
    <i type="logical" name="LZEROZ"> F  </i>
   </separator>
   <separator name="electronic exchange-correlation" >
    <i type="logical" name="LASPH"> F  </i>
    <i type="logical" name="LMETAGGA"> F  </i>
   </separator>
   <separator name="electronic convergence" >
    <i type="int" name="NELM">    60</i>
    <i type="int" name="NELMDL">     0</i>
    <i type="int" name="NELMIN">     2</i>
    <i name="ENINI">    600.00000000</i>
    <separator name="electronic convergence detail" >
     <i type="logical" name="LDIAG"> T  </i>
     <i type="logical" name="LSUBROT"> F  </i>
     <i name="WEIMIN">      0.00000000</i>
     <i name="EBREAK">      0.00000057</i>
     <i name="DEPER">      0.30000000</i>
     <i type="int" name="NRMM">     4</i>
     <i name="TIME">      0.40000000</i>
    </separator>
   </separator>
   <separator name="electronic mixer" >
    <i name="AMIX">      0.40000000</i>
    <i name="BMIX">      1.00000000</i>
    <i name="AMIN">      0.10000000</i>
    <i name="AMIX_MAG">      1.60000000</i>
    <i name="BMIX_MAG">      1.00000000</i>
    <separator name="electronic mixer details" >
     <i type="int" name="IMIX">     4</i>
     <i type="logical" name="MIXFIRST"> F  </i>
     <i type="int" name="MAXMIX">   -45</i>
     <i name="WC">    100.00000000</i>
     <i type="int" name="INIMIX">     1</i>
     <i type="int" name="MIXPRE">     1</i>
     <i type="int" name="MREMOVE">     5</i>
    </separator>
   </separator>
   <separator name="electronic dipolcorrection" >
    <i type="logical" name="LDIPOL"> F  </i>
    <i type="logical" name="LMONO"> F  </i>
    <i type="int" name="IDIPOL">     0</i>
    <i name="EPSILON">      1.00000000</i>
    <v name="DIPOL">   -100.00000000   -100.00000000   -100.00000000</v>
    <i name="EFIELD">      0.00000000</i>
   </separator>
  </separator>
  <separator name="grids" >
   <i type="int" name="NGX">   162</i>
   <i type="int" name="NGY">   108</i>
   <i type="int" name="NGZ">   108</i>
   <i type="int" name="NGXF">   324</i>
   <i type="int" name="NGYF">   216</i>
   <i type="int" name="NGZF">   216</i>
   <i type="logical" name="ADDGRID"> F  </i>
  </separator>
  <separator name="ionic" >
   <i type="int" name="NSW">     0</i>
   <i type="int" name="IBRION">    -1</i>
   <i type="int" name="MDALGO">     0</i>
   <i type="int" name="ISIF">     2</i>
   <i name="PSTRESS">      0.00000000</i>
   <i name="EDIFFG">      0.00100000</i>
   <i type="int" name="NFREE">     0</i>
   <i name="POTIM">      0.50000000</i>
   <i name="SMASS">     -3.00000000</i>
   <i name="SCALEE">      1.00000000</i>
  </separator>
  <separator name="ionic md" >
   <i name="TEBEG">      0.00010000</i>
   <i name="TEEND">      0.00010000</i>
   <i type="int" name="NBLOCK">     1</i>
   <i type="int" name="KBLOCK">     1</i>
   <i type="int" name="NPACO">   256</i>
   <i name="APACO">     10.00000000</i>
  </separator>
  <separator name="symmetry" >
   <i type="int" name="ISYM">     2</i>
   <i name="SYMPREC">      0.00001000</i>
  </separator>
  <separator name="dos" >
   <i type="int" name="LORBIT">     0</i>
   <v name="RWIGS">     -1.00000000     -1.00000000     -1.00000000</v>
   <i type="int" name="NEDOS">   301</i>
   <i name="EMIN">     10.00000000</i>
   <i name="EMAX">    -10.00000000</i>
   <i name="EFERMI">      0.00000000</i>
  </separator>
  <separator name="writing" >
   <i type="int" name="NWRITE">     2</i>
   <i type="logical" name="LWAVE"> F  </i>
   <i type="logical" name="LDOWNSAMPLE"> F  </i>
   <i type="logical" name="LCHARG"> F  </i>
   <i type="logical" name="LPARD"> F  </i>
   <i type="logical" name="LVTOT"> F  </i>
   <i type="logical" name="LVHAR"> F  </i>
   <i type="logical" name="LELF"> F  </i>
   <i type="logical" name="LOPTICS"> F  </i>
   <v name="STM">      0.00000000      0.00000000      0.00000000      0.00000000      0.00000000      0.00000000      0.00000000</v>
  </separator>
  <separator name="performance" >
   <i type="int" name="NPAR">     4</i>
   <i type="int" name="NSIM">     4</i>
   <i type="int" name="NBLK">    -1</i>
   <i type="logical" name="LPLANE"> T  </i>
   <i type="logical" name="LSCALAPACK"> T  </i>
   <i type="logical" name="LSCAAWARE"> F  </i>
   <i type="logical" name="LSCALU"> F  </i>
   <i type="logical" name="LASYNC"> F  </i>
   <i type="logical" name="LORBITALREAL"> F  </i>
  </separator>
  <separator name="miscellaneous" >
   <i type="int" name="IDIOT">     3</i>
   <i type="int" name="PHON_NSTRUCT">    -1</i>
   <i type="logical" name="LMUSIC"> F  </i>
   <v name="POMASS">     14.00100000     12.01100000      1.00000000</v>
   <v name="DARWINR">      0.00000000      0.00000000      0.00000000</v>
   <v name="DARWINV">      1.00000000      1.00000000      1.00000000</v>
   <i type="logical" name="LCORR"> T  </i>
  </separator>
  <i type="logical" name="GGA_COMPAT"> T  </i>
  <i type="logical" name="LBERRY"> F  </i>
  <i type="int" name="ICORELEVEL">     0</i>
  <i type="logical" name="LDAU"> F  </i>
  <i type="int" name="I_CONSTRAINED_M">     0</i>
  <separator name="electronic exchange-correlation" >
   <i type="string" name="GGA">PE</i>
   <i type="int" name="VOSKOWN">     0</i>
   <i type="logical" name="LHFCALC"> F  </i>
   <i type="string" name="PRECFOCK"></i>
   <i type="logical" name="LSYMGRAD"> F  </i>
   <i type="logical" name="LHFONE"> F  </i>
   <i type="logical" name="LRHFCALC"> F  </i>
   <i type="logical" name="LTHOMAS"> F  </i>
   <i type="logical" name="LMODELHF"> F  </i>
   <i type="logical" name="LFOCKACE"> F  </i>
   <i name="ENCUT4O">     -1.00000000</i>
   <i type="int" name="EXXOEP">     0</i>
   <i type="int" name="FOURORBIT">     0</i>
   <i name="AEXX">      0.00000000</i>
   <i name="HFALPHA">      0.00000000</i>
   <i name="MCALPHA">      0.00000000</i>
   <i name="ALDAX">      1.00000000</i>
   <i name="AGGAX">      1.00000000</i>
   <i name="ALDAC">      1.00000000</i>
   <i name="AGGAC">      1.00000000</i>
   <i type="int" name="NKREDX">     1</i>
   <i type="int" name="NKREDY">     1</i>
   <i type="int" name="NKREDZ">     1</i>
   <i type="logical" name="SHIFTRED"> F  </i>
   <i type="logical" name="ODDONLY"> F  </i>
   <i type="logical" name="EVENONLY"> F  </i>
   <i type="int" name="LMAXFOCK">     0</i>
   <i type="int" name="NMAXFOCKAE">     0</i>
   <i type="logical" name="LFOCKAEDFT"> F  </i>
   <i name="HFSCREEN">      0.00000000</i>
   <i name="HFSCREENC">      0.00000000</i>
   <i type="int" name="NBANDSGWLOW">     0</i>
  </separator>
  <separator name="vdW DFT" >
   <i type="logical" name="LUSE_VDW"> F  </i>
   <i name="Zab_VDW">     -0.84910000</i>
   <i name="PARAM1">      0.12340000</i>
   <i name="PARAM2">      1.00000000</i>
   <i name="PARAM3">      0.00000000</i>
  </separator>
  <separator name="model GW" >
   <i type="int" name="MODEL_GW">     0</i>
   <i name="MODEL_EPS0">    167.18679311</i>
   <i name="MODEL_ALPHA">      1.00000000</i>
  </separator>
  <separator name="linear response parameters" >
   <i type="logical" name="LEPSILON"> F  </i>
   <i type="logical" name="LRPA"> F  </i>
   <i type="logical" name="LNABLA"> F  </i>
   <i type="logical" name="LVEL"> F  </i>
   <i name="CSHIFT">      0.10000000</i>
   <i name="OMEGAMAX">     -1.00000000</i>
   <i name="DEG_THRESHOLD">      0.00200000</i>
   <i name="RTIME">     -0.10000000</i>
   <i name="WPLASMAI">      0.00000000</i>
   <v name="DFIELD">      0.00000000      0.00000000      0.00000000</v>
   <v name="WPLASMA">      0.00000000      0.00000000      0.00000000      0.00000000      0.00000000      0.00000000      0.00000000      0.00000000      0.00000000</v>
  </separator>
  <separator name="orbital magnetization" >
   <i type="logical" name="NUCIND"> F  </i>
   <v name="MAGPOS">      0.00000000      0.00000000      0.00000000</v>
   <i type="logical" name="LNICSALL"> T  </i>
   <i type="logical" name="ORBITALMAG"> F  </i>
   <i type="logical" name="LMAGBLOCH"> F  </i>
   <i type="logical" name="LCHIMAG"> F  </i>
   <i type="logical" name="LGAUGE"> T  </i>
   <i type="int" name="MAGATOM">     0</i>
   <v name="MAGDIPOL">      0.00000000      0.00000000      0.00000000</v>
   <v name="AVECCONST">      0.00000000      0.00000000      0.00000000</v>
  </separator>
  <separator name="response functions" >
   <i type="logical" name="LFINITE_TEMPERATURE"> F  </i>
   <i type="logical" name="LADDER"> F  </i>
   <i type="logical" name="LRPAFORCE"> F  </i>
   <i type="logical" name="LFXC"> F  </i>
   <i type="logical" name="LHARTREE"> T  </i>
   <i type="int" name="IBSE">     0</i>
   <v type="int" name="KPOINT">    -1     0     0     0</v>
   <i type="logical" name="LTCTC"> F  </i>
   <i type="logical" name="LTCTE"> F  </i>
   <i type="logical" name="LTETE"> F  </i>
   <i type="logical" name="LTRIPLET"> F  </i>
   <i type="logical" name="LFXCEPS"> F  </i>
   <i type="logical" name="LFXHEG"> F  </i>
   <i type="int" name="NATURALO">     2</i>
   <i type="logical" name="LHOLEGF"> F  </i>
   <i type="logical" name="L2ORDER"> F  </i>
   <i type="logical" name="LDMP1"> F  </i>
   <i type="logical" name="LMP2LT"> F  </i>
   <i type="logical" name="LSMP2LT"> F  </i>
   <i type="logical" name="LGWLF"> F  </i>
   <i name="ENCUTGW">     -2.00000000</i>
   <i name="ENCUTGWSOFT">     -2.00000000</i>
   <i name="ENCUTLF">     -1.00000000</i>
   <i type="logical" name="LESF_SPLINES"> F  </i>
   <i type="int" name="LMAXMP2">    -1</i>
   <i name="SCISSOR">      0.00000000</i>
   <i type="int" name="NOMEGA">     0</i>
   <i type="int" name="NOMEGAR">     0</i>
   <i type="int" name="NBANDSGW">    -1</i>
   <i type="int" name="NBANDSO">    -1</i>
   <i type="int" name="NBANDSV">    -1</i>
   <i type="int" name="NELMGW">     1</i>
   <i type="int" name="NELMHF">     1</i>
   <i type="int" name="DIM">     3</i>
   <i type="int" name="IESPILON">     4</i>
   <i type="int" name="ANTIRES">     0</i>
   <i name="OMEGAMAX">    -30.00000000</i>
   <i name="OMEGAMIN">    -30.00000000</i>
   <i name="OMEGATL">   -200.00000000</i>
   <i type="int" name="OMEGAGRID">     0</i>
   <i name="CSHIFT">     -0.10000000</i>
   <i type="logical" name="LSELFENERGY"> F  </i>
   <i type="logical" name="LSPECTRAL"> F  </i>
   <i type="logical" name="LSPECTRALGW"> F  </i>
   <i type="logical" name="LSINGLES"> F  </i>
   <i type="logical" name="LFERMIGW"> F  </i>
   <i type="logical" name="ODDONLYGW"> F  </i>
   <i type="logical" name="EVENONLYGW"> F  </i>
   <i type="int" name="NKREDLFX">     1</i>
   <i type="int" name="NKREDLFY">     1</i>
   <i type="int" name="NKREDLFZ">     1</i>
   <i type="int" name="MAXMEM">  2800</i>
   <i type="int" name="TELESCOPE">     0</i>
   <i type="int" name="NTAUPAR">    -1</i>
   <i type="int" name="NOMEGAPAR">    -1</i>
   <i name="DAMP_NEWTON">      0.80000001</i>
   <i name="LAMBDA">      1.00000000</i>
  </separator>
  <separator name="External order field" >
   <i name="OFIELD_KAPPA">      0.00000000</i>
   <v name="OFIELD_K">      0.00000000      0.00000000      0.00000000</v>
   <i name="OFIELD_Q6_NEAR">      0.00000000</i>
   <i name="OFIELD_Q6_FAR">      0.00000000</i>
   <i name="OFIELD_A">      0.00000000</i>
  </separator>
  <separator name="optional k-points parameters" >
   <i type="int" name="KPOINTS_OPT_MODE">     1</i>
   <i type="logical" name="LKPOINTS_OPT"> F  </i>
  </separator>
 </parameters>
 <atominfo>
  <atoms>      28 </atoms>
  <types>       3 </types>
  <array name="atoms" >
   <dimension dim="1">ion</dimension>
   <field type="string">element</field>
   <field type="int">atomtype</field>
   <set>
    <rc><c>N </c><c>   1</c></rc>
    <rc><c>C </c><c>   2</c></rc>
    <rc><c>C </c><c>   2</c></rc>
    <rc><c>C </c><c>   2</c></rc>
    <rc><c>C </c><c>   2</c></rc>
    <rc><c>C </c><c>   2</c></rc>
    <rc><c>C </c><c>   2</c></rc>
    <rc><c>C </c><c>   2</c></rc>
    <rc><c>C </c><c>   2</c></rc>
    <rc><c>H </c><c>   3</c></rc>
    <rc><c>H </c><c>   3</c></rc>
    <rc><c>H </c><c>   3</c></rc>
    <rc><c>H </c><c>   3</c></rc>
    <rc><c>H </c><c>   3</c></rc>
    <rc><c>H </c><c>   3</c></rc>
    <rc><c>H </c><c>   3</c></rc>
    <rc><c>H </c><c>   3</c></rc>
    <rc><c>H </c><c>   3</c></rc>
    <rc><c>H </c><c>   3</c></rc>
    <rc><c>H </c><c>   3</c></rc>
    <rc><c>H </c><c>   3</c></rc>
    <rc><c>H </c><c>   3</c></rc>
    <rc><c>H </c><c>   3</c></rc>
    <rc><c>H </c><c>   3</c></rc>
    <rc><c>H </c><c>   3</c></rc>
    <rc><c>H </c><c>   3</c></rc>
    <rc><c>H </c><c>   3</c></rc>
    <rc><c>H </c><c>   3</c></rc>
   </set>
  </array>
  <array name="atomtypes" >
   <dimension dim="1">type</dimension>
   <field type="int">atomspertype</field>
   <field type="string">element</field>
   <field>mass</field>
   <field>valence</field>
   <field type="string">pseudopotential</field>
   <set>
    <rc><c>   1</c><c>N </c><c>     14.00100000</c><c>      5.00000000</c><c>  PAW_PBE N 08Apr2002                   </c></rc>
    <rc><c>   8</c><c>C </c><c>     12.01100000</c><c>      4.00000000</c><c>  PAW_PBE C 08Apr2002                   </c></rc>
    <rc><c>  19</c><c>H </c><c>      1.00000000</c><c>      1.00000000</c><c>  PAW_PBE H 15Jun2001                   </c></rc>
   </set>
  </array>
 </atominfo>
 <structure name="initialpos" >
  <crystal>
   <varray name="basis" >
    <v>      26.80760000       0.00000000       0.00000000 </v>
    <v>       0.00000000      17.24010000       0.00000000 </v>
    <v>       0.00000000       0.00000000      16.88150000 </v>
   </varray>
   <i name="volume">   7802.05034491 </i>
   <varray name="rec_basis" >
    <v>       0.03730285       0.00000000       0.00000000 </v>
    <v>       0.00000000       0.05800430       0.00000000 </v>
    <v>       0.00000000       0.00000000       0.05923644 </v>
   </varray>
  </crystal>
  <varray name="positions" >
   <v>       0.68735674       0.46837206       0.53059606 </v>
   <v>       0.50270040       0.48669688       0.45605893 </v>
   <v>       0.45472570       0.53168863       0.48127213 </v>
   <v>       0.55445052       0.53098011       0.46600807 </v>
   <v>       0.40822196       0.47910157       0.49562226 </v>
   <v>       0.59404783       0.47843672       0.50365132 </v>
   <v>       0.36118296       0.52208706       0.52355621 </v>
   <v>       0.64562726       0.51638126       0.50821948 </v>
   <v>       0.31626954       0.46602074       0.52418616 </v>
   <v>       0.50612401       0.43105943       0.48716496 </v>
   <v>       0.49515792       0.46910900       0.39429105 </v>
   <v>       0.44398324       0.58311087       0.43330976 </v>
   <v>       0.46332518       0.56257146       0.53706635 </v>
   <v>       0.56819778       0.55624455       0.41106625 </v>
   <v>       0.54528287       0.57765716       0.51325205 </v>
   <v>       0.41470701       0.43377222       0.54266143 </v>
   <v>       0.39976785       0.44534648       0.43869993 </v>
   <v>       0.58097448       0.46138088       0.56420870 </v>
   <v>       0.59810447       0.42220067       0.47263554 </v>
   <v>       0.35631894       0.57390933       0.48160846 </v>
   <v>       0.36890320       0.54595336       0.58075238 </v>
   <v>       0.64156868       0.56984015       0.54898448 </v>
   <v>       0.65049366       0.53730289       0.44389492 </v>
   <v>       0.30559779       0.44504272       0.46419804 </v>
   <v>       0.28155012       0.49424589       0.54619787 </v>
   <v>       0.32231430       0.41629016       0.56502048 </v>
   <v>       0.71892657       0.50153287       0.53913258 </v>
   <v>       0.69224408       0.42134698       0.49473220 </v>
  </varray>
 </structure>
 <calculation>
  <scstep>
   <time name="dav">   21.02   21.14</time>
   <time name="total">   24.41   24.54</time>
   <energy>
    <i name="alphaZ">      1.66613503 </i>
    <i name="ewald">   3886.25689738 </i>
    <i name="hartreedc">  -4963.72171742 </i>
    <i name="XCdc">    168.90320413 </i>
    <i name="pawpsdc">   1113.65562394 </i>
    <i name="pawaedc">  -1119.57053240 </i>
    <i name="eentropy">     -0.02153666 </i>
    <i name="bandstr">   -274.58808925 </i>
    <i name="atom">   1679.01238979 </i>
    <i name="e_fr_energy">    491.59237454 </i>
    <i name="e_wo_entrp">    491.61391120 </i>
    <i name="e_0_energy">    491.60314287 </i>
   </energy>
  </scstep>
  <scstep>
   <time name="dav">   25.87   26.01</time>
   <time name="total">   26.96   27.10</time>
   <energy>
    <i name="e_fr_energy">    135.40020685 </i>
    <i name="e_wo_entrp">    135.42741569 </i>
    <i name="e_0_energy">    135.41381127 </i>
   </energy>
  </scstep>
  <scstep>
   <time name="dav">   24.40   24.53</time>
   <time name="total">   24.59   24.72</time>
   <energy>
    <i name="e_fr_energy">   -124.29765794 </i>
    <i name="e_wo_entrp">   -124.29765794 </i>
    <i name="e_0_energy">   -124.29765794 </i>
   </energy>
  </scstep>
  <scstep>
   <time name="dav">   22.14   22.23</time>
   <time name="total">   22.50   22.60</time>
   <energy>
    <i name="e_fr_energy">   -165.15683361 </i>
    <i name="e_wo_entrp">   -165.15683361 </i>
    <i name="e_0_energy">   -165.15683361 </i>
   </energy>
  </scstep>
  <scstep>
   <time name="dav">   25.12   25.24</time>
   <time name="total">   26.47   26.60</time>
   <energy>
    <i name="e_fr_energy">   -166.40516062 </i>
    <i name="e_wo_entrp">   -166.40516062 </i>
    <i name="e_0_energy">   -166.40516062 </i>
   </energy>
  </scstep>
  <scstep>
   <time name="diag">    4.56    4.58</time>
   <time name="diis">   10.38   10.46</time>
   <time name="orth">    0.44    0.44</time>
   <time name="total">   19.41   19.55</time>
   <energy>
    <i name="e_fr_energy">   -153.64615685 </i>
    <i name="e_wo_entrp">   -153.64615685 </i>
    <i name="e_0_energy">   -153.64615685 </i>
   </energy>
  </scstep>
  <scstep>
   <time name="diag">    4.79    4.81</time>
   <time name="diis">   10.68   10.73</time>
   <time name="orth">    0.29    0.29</time>
   <time name="total">   19.67   19.76</time>
   <energy>
    <i name="e_fr_energy">   -151.06482941 </i>
    <i name="e_wo_entrp">   -151.06482941 </i>
    <i name="e_0_energy">   -151.06482941 </i>
   </energy>
  </scstep>
  <scstep>
   <time name="diag">    4.76    4.77</time>
   <time name="diis">   10.43   10.48</time>
   <time name="orth">    0.30    0.30</time>
   <time name="total">   19.10   19.20</time>
   <energy>
    <i name="e_fr_energy">   -150.72061339 </i>
    <i name="e_wo_entrp">   -150.72061339 </i>
    <i name="e_0_energy">   -150.72061339 </i>
   </energy>
  </scstep>
  <scstep>
   <time name="diag">    5.02    5.04</time>
   <time name="diis">   10.57   10.65</time>
   <time name="orth">    0.59    0.59</time>
   <time name="total">   20.35   20.48</time>
   <energy>
    <i name="e_fr_energy">   -150.42878179 </i>
    <i name="e_wo_entrp">   -150.42878179 </i>
    <i name="e_0_energy">   -150.42878179 </i>
   </energy>
  </scstep>
  <scstep>
   <time name="diag">    4.87    4.94</time>
   <time name="diis">   10.91   10.96</time>
   <time name="orth">    0.34    0.34</time>
   <time name="total">   20.21   20.36</time>
   <energy>
    <i name="e_fr_energy">   -150.45586425 </i>
    <i name="e_wo_entrp">   -150.45586425 </i>
    <i name="e_0_energy">   -150.45586425 </i>
   </energy>
  </scstep>
  <scstep>
   <time name="diag">    5.02    5.04</time>
   <time name="diis">   10.31   10.36</time>
   <time name="orth">    0.70    0.70</time>
   <time name="total">   20.07   20.16</time>
   <energy>
    <i name="e_fr_energy">   -150.43785668 </i>
    <i name="e_wo_entrp">   -150.43785668 </i>
    <i name="e_0_energy">   -150.43785668 </i>
   </energy>
  </scstep>
  <scstep>
   <time name="diag">    4.57    4.59</time>
   <time name="diis">   10.44   10.53</time>
   <time name="orth">    0.35    0.35</time>
   <time name="total">   19.39   19.52</time>
   <energy>
    <i name="e_fr_energy">   -150.43396464 </i>
    <i name="e_wo_entrp">   -150.43396464 </i>
    <i name="e_0_energy">   -150.43396464 </i>
   </energy>
  </scstep>
  <scstep>
   <time name="diag">    5.16    5.18</time>
   <time name="diis">   11.26   11.31</time>
   <time name="orth">    0.32    0.33</time>
   <time name="total">   20.65   20.74</time>
   <energy>
    <i name="e_fr_energy">   -150.43952779 </i>
    <i name="e_wo_entrp">   -150.43952779 </i>
    <i name="e_0_energy">   -150.43952779 </i>
   </energy>
  </scstep>
  <scstep>
   <time name="diag">    4.53    4.54</time>
   <time name="diis">   11.07   11.12</time>
   <time name="orth">    0.60    0.60</time>
   <time name="total">   19.92   20.03</time>
   <energy>
    <i name="e_fr_energy">   -150.45271836 </i>
    <i name="e_wo_entrp">   -150.45271836 </i>
    <i name="e_0_energy">   -150.45271836 </i>
   </energy>
  </scstep>
  <scstep>
   <time name="diag">    4.31    4.33</time>
   <time name="diis">   10.56   10.64</time>
   <time name="orth">    0.32    0.32</time>
   <time name="total">   19.29   19.41</time>
   <energy>
    <i name="e_fr_energy">   -150.45690178 </i>
    <i name="e_wo_entrp">   -150.45690178 </i>
    <i name="e_0_energy">   -150.45690178 </i>
   </energy>
  </scstep>
  <scstep>
   <time name="diag">    4.73    4.74</time>
   <time name="diis">   10.28   10.33</time>
   <time name="orth">    0.50    0.50</time>
   <time name="total">   19.74   19.83</time>
   <energy>
    <i name="e_fr_energy">   -150.46449234 </i>
    <i name="e_wo_entrp">   -150.46449234 </i>
    <i name="e_0_energy">   -150.46449234 </i>
   </energy>
  </scstep>
  <scstep>
   <time name="diag">    4.64    4.66</time>
   <time name="diis">    9.76    9.80</time>
   <time name="orth">    0.34    0.34</time>
   <time name="total">   18.85   18.93</time>
   <energy>
    <i name="e_fr_energy">   -150.46728450 </i>
    <i name="e_wo_entrp">   -150.46728450 </i>
    <i name="e_0_energy">   -150.46728450 </i>
   </energy>
  </scstep>
  <scstep>
   <time name="diag">    4.68    4.70</time>
   <time name="diis">   10.04   10.12</time>
   <time name="orth">    0.44    0.44</time>
   <time name="total">   19.28   19.43</time>
   <energy>
    <i name="e_fr_energy">   -150.46899773 </i>
    <i name="e_wo_entrp">   -150.46899773 </i>
    <i name="e_0_energy">   -150.46899773 </i>
   </energy>
  </scstep>
  <scstep>
   <time name="diag">    4.56    4.57</time>
   <time name="diis">    8.59    8.63</time>
   <time name="orth">    0.30    0.30</time>
   <time name="total">   17.66   17.73</time>
   <energy>
    <i name="e_fr_energy">   -150.46971832 </i>
    <i name="e_wo_entrp">   -150.46971832 </i>
    <i name="e_0_energy">   -150.46971832 </i>
   </energy>
  </scstep>
  <scstep>
   <time name="diag">    4.55    4.56</time>
   <time name="diis">    8.40    8.44</time>
   <time name="orth">    0.56    0.56</time>
   <time name="total">   17.54   17.64</time>
   <energy>
    <i name="e_fr_energy">   -150.46995760 </i>
    <i name="e_wo_entrp">   -150.46995760 </i>
    <i name="e_0_energy">   -150.46995760 </i>
   </energy>
  </scstep>
  <scstep>
   <time name="diag">    4.80    4.82</time>
   <time name="diis">    8.51    8.56</time>
   <time name="orth">    0.34    0.34</time>
   <time name="total">   18.08   18.20</time>
   <energy>
    <i name="e_fr_energy">   -150.47029450 </i>
    <i name="e_wo_entrp">   -150.47029450 </i>
    <i name="e_0_energy">   -150.47029450 </i>
   </energy>
  </scstep>
  <scstep>
   <time name="diag">    4.45    4.47</time>
   <time name="diis">    8.42    8.46</time>
   <time name="orth">    0.44    0.44</time>
   <time name="total">   15.88   16.00</time>
   <energy>
    <i name="alphaZ">      1.66613503 </i>
    <i name="ewald">   3886.25689738 </i>
    <i name="hartreedc">  -5250.91529282 </i>
    <i name="XCdc">    182.74357723 </i>
    <i name="pawpsdc">   3697.57971490 </i>
    <i name="pawaedc">  -3704.85803797 </i>
    <i name="eentropy">     -0.00000000 </i>
    <i name="bandstr">   -641.95572482 </i>
    <i name="atom">   1679.01238979 </i>
    <i name="e_fr_energy">   -150.47034128 </i>
    <i name="e_wo_entrp">   -150.47034128 </i>
    <i name="e_0_energy">   -150.47034128 </i>
   </energy>
  </scstep>
  <structure>
   <crystal>
    <varray name="basis" >
     <v>      26.80760000       0.00000000       0.00000000 </v>
     <v>       0.00000000      17.24010000       0.00000000 </v>
     <v>       0.00000000       0.00000000      16.88150000 </v>
    </varray>
    <i name="volume">   7802.05034491 </i>
    <varray name="rec_basis" >
     <v>       0.03730285       0.00000000       0.00000000 </v>
     <v>       0.00000000       0.05800430       0.00000000 </v>
     <v>       0.00000000       0.00000000       0.05923644 </v>
    </varray>
   </crystal>
   <varray name="positions" >
    <v>       0.68735674       0.46837206       0.53059606 </v>
    <v>       0.50270040       0.48669688       0.45605893 </v>
    <v>       0.45472570       0.53168863       0.48127213 </v>
    <v>       0.55445052       0.53098011       0.46600807 </v>
    <v>       0.40822196       0.47910157       0.49562226 </v>
    <v>       0.59404783       0.47843672       0.50365132 </v>
    <v>       0.36118296       0.52208706       0.52355621 </v>
    <v>       0.64562726       0.51638126       0.50821948 </v>
    <v>       0.31626954       0.46602074       0.52418616 </v>
    <v>       0.50612401       0.43105943       0.48716496 </v>
    <v>       0.49515792       0.46910900       0.39429105 </v>
    <v>       0.44398324       0.58311087       0.43330976 </v>
    <v>       0.46332518       0.56257146       0.53706635 </v>
    <v>       0.56819778       0.55624455       0.41106625 </v>
    <v>       0.54528287       0.57765716       0.51325205 </v>
    <v>       0.41470701       0.43377222       0.54266143 </v>
    <v>       0.39976785       0.44534648       0.43869993 </v>
    <v>       0.58097448       0.46138088       0.56420870 </v>
    <v>       0.59810447       0.42220067       0.47263554 </v>
    <v>       0.35631894       0.57390933       0.48160846 </v>
    <v>       0.36890320       0.54595336       0.58075238 </v>
    <v>       0.64156868       0.56984015       0.54898448 </v>
    <v>       0.65049366       0.53730289       0.44389492 </v>
    <v>       0.30559779       0.44504272       0.46419804 </v>
    <v>       0.28155012       0.49424589       0.54619787 </v>
    <v>       0.32231430       0.41629016       0.56502048 </v>
    <v>       0.71892657       0.50153287       0.53913258 </v>
    <v>       0.69224408       0.42134698       0.49473220 </v>
   </varray>
  </structure>
  <varray name="forces" >
   <v>       0.04210094       0.07595526       1.08911994 </v>
   <v>      -0.04630690       0.49106601      -0.72857796 </v>
   <v>      -0.36725268       1.09449260      -0.76841164 </v>
   <v>      -1.59863423      -0.07192621       1.75869253 </v>
   <v>       0.24161671      -0.65347326      -0.63184825 </v>
   <v>       0.12085335      -0.79833282       0.92576197 </v>
   <v>      -0.02257806       0.08348878      -2.18744678 </v>
   <v>      -0.65249717       1.68371852      -1.33004783 </v>
   <v>      -0.73985264       0.54423365       0.24778151 </v>
   <v>      -0.23959435       0.02616211       0.38588147 </v>
   <v>       0.44855389       0.03035030      -0.09234998 </v>
   <v>       0.71154169      -2.06992429       1.74807918 </v>
   <v>      -0.12667613       0.09445262      -0.05864546 </v>
   <v>      -0.07825373       0.31785191      -0.18938682 </v>
   <v>       0.61898403      -0.58339305      -1.33612647 </v>
   <v>       0.40832540       0.40819623      -0.61400363 </v>
   <v>       0.18506934       0.58984526       0.94866271 </v>
   <v>       0.17915104       0.14827311      -0.37406896 </v>
   <v>      -0.13356515       0.13673655      -0.26035453 </v>
   <v>      -0.28809319      -0.94325717       0.76774921 </v>
   <v>      -0.03289567       0.38548331       1.00201146 </v>
   <v>       0.50130927      -1.11191684      -0.87983122 </v>
   <v>       0.02496913       0.29960454       1.01324670 </v>
   <v>       0.46085261      -0.02611750       0.34833217 </v>
   <v>       0.38513624       0.01537771      -0.02210317 </v>
   <v>       0.12750708       0.18134331      -0.41862160 </v>
   <v>      -0.36765902      -0.68402662      -0.34241526 </v>
   <v>       0.23788819       0.33573597      -0.00107929 </v>
  </varray>
  <varray name="stress" >
   <v>      -1.21308681      -0.12719393      -0.00101889 </v>
   <v>      -0.12719393      -1.36179125       0.14752853 </v>
   <v>      -0.00101889       0.14752853      -1.22266874 </v>
  </varray>
  <energy>
   <i name="e_fr_energy">   -150.77618075 </i>
   <i name="e_wo_entrp">   -150.77618075 </i>
   <i name="e_0_energy">   -150.77618075 </i>
  </energy>
  <time name="totalsc">  465.98  468.55</time>
  <eigenvalues>
   <array>
    <dimension dim="1">band</dimension>
    <dimension dim="2">kpoint</dimension>
    <dimension dim="3">spin</dimension>
    <field>eigene</field>
    <field>occ</field>
    <set>
     <set comment="spin 1">
      <set comment="kpoint 1">
       <r>  -21.7228    1.0000 </r>
       <r>  -19.6341    1.0000 </r>
       <r>  -19.1053    1.0000 </r>
       <r>  -17.9899    1.0000 </r>
       <r>  -16.6190    1.0000 </r>
       <r>  -15.3378    1.0000 </r>
       <r>  -14.1836    1.0000 </r>
       <r>  -13.8408    1.0000 </r>
       <r>  -13.6714    1.0000 </r>
       <r>  -12.1039    1.0000 </r>
       <r>  -11.3679    1.0000 </r>
       <r>  -11.0499    1.0000 </r>
       <r>  -10.7513    1.0000 </r>
       <r>  -10.3745    1.0000 </r>
       <r>  -10.1255    1.0000 </r>
       <r>   -9.6184    1.0000 </r>
       <r>   -9.4169    1.0000 </r>
       <r>   -8.8999    1.0000 </r>
       <r>   -8.7367    1.0000 </r>
       <r>   -8.4687    1.0000 </r>
       <r>   -8.0869    1.0000 </r>
       <r>   -7.9913    1.0000 </r>
       <r>   -7.6425    1.0000 </r>
       <r>   -7.5919    1.0000 </r>
       <r>   -7.3584    1.0000 </r>
       <r>   -7.2166    1.0000 </r>
       <r>   -7.1204    1.0000 </r>
       <r>   -4.9516    1.0000 </r>
       <r>   -0.5412    0.0000 </r>
       <r>   -0.3820    0.0000 </r>
       <r>   -0.1802    0.0000 </r>
       <r>   -0.0776    0.0000 </r>
       <r>   -0.0444    0.0000 </r>
       <r>    0.1584    0.0000 </r>
       <r>    0.2081    0.0000 </r>
       <r>    0.2779    0.0000 </r>
       <r>    0.3519    0.0000 </r>
       <r>    0.4274    0.0000 </r>
       <r>    0.4690    0.0000 </r>
       <r>    0.5516    0.0000 </r>
       <r>    0.6242    0.0000 </r>
       <r>    0.6820    0.0000 </r>
       <r>    0.9119    0.0000 </r>
       <r>    1.0974    0.0000 </r>
      </set>
     </set>
    </set>
   </array>
  </eigenvalues>
  <separator name="orbital magnetization" >
   <v name="MAGDIPOLOUT">      0.00000000      0.00000000      0.00000000</v>
  </separator>
  <dos>
   <i name="efermi">     -4.69605532 </i>
   <total>
    <array>
     <dimension dim="1">gridpoints</dimension>
     <dimension dim="2">spin</dimension>
     <field>energy</field>
     <field>total</field>
     <field>integrated</field>
     <set>
      <set comment="spin 1">
       <r>   -22.8638     0.0000     0.0000 </r>
       <r>   -22.7801     0.0000     0.0000 </r>
       <r>   -22.6964     0.0000     0.0000 </r>
       <r>   -22.6128     0.0000     0.0000 </r>
       <r>   -22.5291     0.0000     0.0000 </r>
       <r>   -22.4454     0.0000     0.0000 </r>
       <r>   -22.3617     0.0000     0.0000 </r>
       <r>   -22.2781     0.0000     0.0000 </r>
       <r>   -22.1944     0.0000     0.0000 </r>
       <r>   -22.1107     0.0000     0.0000 </r>
       <r>   -22.0270     0.0000     0.0000 </r>
       <r>   -21.9434     0.0000     0.0000 </r>
       <r>   -21.8597     0.0013     0.0001 </r>
       <r>   -21.7760     1.5769     0.1321 </r>
       <r>   -21.6924    17.6696     1.6105 </r>
       <r>   -21.6087     4.6395     1.9988 </r>
       <r>   -21.5250     0.0149     2.0000 </r>
       <r>   -21.4413     0.0000     2.0000 </r>
       <r>   -21.3577     0.0000     2.0000 </r>
       <r>   -21.2740     0.0000     2.0000 </r>
       <r>   -21.1903     0.0000     2.0000 </r>
       <r>   -21.1066     0.0000     2.0000 </r>
       <r>   -21.0230     0.0000     2.0000 </r>
       <r>   -20.9393     0.0000     2.0000 </r>
       <r>   -20.8556     0.0000     2.0000 </r>
       <r>   -20.7719     0.0000     2.0000 </r>
       <r>   -20.6883     0.0000     2.0000 </r>
       <r>   -20.6046     0.0000     2.0000 </r>
       <r>   -20.5209     0.0000     2.0000 </r>
       <r>   -20.4372     0.0000     2.0000 </r>
       <r>   -20.3536     0.0000     2.0000 </r>
       <r>   -20.2699     0.0000     2.0000 </r>
       <r>   -20.1862     0.0000     2.0000 </r>
       <r>   -20.1025     0.0000     2.0000 </r>
       <r>   -20.0189     0.0000     2.0000 </r>
       <r>   -19.9352     0.0000     2.0000 </r>
       <r>   -19.8515     0.0000     2.0000 </r>
       <r>   -19.7678     0.0019     2.0002 </r>
       <r>   -19.6842     1.8734     2.1569 </r>
       <r>   -19.6005    17.9452     3.6585 </r>
       <r>   -19.5168     4.0710     3.9991 </r>
       <r>   -19.4332     0.0108     4.0000 </r>
       <r>   -19.3495     0.0000     4.0000 </r>
       <r>   -19.2658     0.0001     4.0000 </r>
       <r>   -19.1821     0.3550     4.0297 </r>
       <r>   -19.0985    13.4220     5.1528 </r>
       <r>   -19.0148     9.9999     5.9895 </r>
       <r>   -18.9311     0.1253     6.0000 </r>
       <r>   -18.8474     0.0000     6.0000 </r>
       <r>   -18.7638     0.0000     6.0000 </r>
       <r>   -18.6801     0.0000     6.0000 </r>
       <r>   -18.5964     0.0000     6.0000 </r>
       <r>   -18.5127     0.0000     6.0000 </r>
       <r>   -18.4291     0.0000     6.0000 </r>
       <r>   -18.3454     0.0000     6.0000 </r>
       <r>   -18.2617     0.0000     6.0000 </r>
       <r>   -18.1780     0.0000     6.0000 </r>
       <r>   -18.0944     0.0373     6.0031 </r>
       <r>   -18.0107     6.6066     6.5559 </r>
       <r>   -17.9270    16.3567     7.9246 </r>
       <r>   -17.8433     0.9012     8.0000 </r>
       <r>   -17.7597     0.0004     8.0000 </r>
       <r>   -17.6760     0.0000     8.0000 </r>
       <r>   -17.5923     0.0000     8.0000 </r>
       <r>   -17.5086     0.0000     8.0000 </r>
       <r>   -17.4250     0.0000     8.0000 </r>
       <r>   -17.3413     0.0000     8.0000 </r>
       <r>   -17.2576     0.0000     8.0000 </r>
       <r>   -17.1740     0.0000     8.0000 </r>
       <r>   -17.0903     0.0000     8.0000 </r>
       <r>   -17.0066     0.0000     8.0000 </r>
       <r>   -16.9229     0.0000     8.0000 </r>
       <r>   -16.8393     0.0000     8.0000 </r>
       <r>   -16.7556     0.0013     8.0001 </r>
       <r>   -16.6719     1.6108     8.1349 </r>
       <r>   -16.5882    17.7076     9.6166 </r>
       <r>   -16.5046     4.5681     9.9988 </r>
       <r>   -16.4209     0.0144    10.0000 </r>
       <r>   -16.3372     0.0000    10.0000 </r>
       <r>   -16.2535     0.0000    10.0000 </r>
       <r>   -16.1699     0.0000    10.0000 </r>
       <r>   -16.0862     0.0000    10.0000 </r>
       <r>   -16.0025     0.0000    10.0000 </r>
       <r>   -15.9188     0.0000    10.0000 </r>
       <r>   -15.8352     0.0000    10.0000 </r>
       <r>   -15.7515     0.0000    10.0000 </r>
       <r>   -15.6678     0.0000    10.0000 </r>
       <r>   -15.5841     0.0000    10.0000 </r>
       <r>   -15.5005     0.0000    10.0000 </r>
       <r>   -15.4168     0.3033    10.0254 </r>
       <r>   -15.3331    12.8943    11.1043 </r>
       <r>   -15.2494    10.5553    11.9875 </r>
       <r>   -15.1658     0.1494    12.0000 </r>
       <r>   -15.0821     0.0000    12.0000 </r>
       <r>   -14.9984     0.0000    12.0000 </r>
       <r>   -14.9148     0.0000    12.0000 </r>
       <r>   -14.8311     0.0000    12.0000 </r>
       <r>   -14.7474     0.0000    12.0000 </r>
       <r>   -14.6637     0.0000    12.0000 </r>
       <r>   -14.5801     0.0000    12.0000 </r>
       <r>   -14.4964     0.0000    12.0000 </r>
       <r>   -14.4127     0.0000    12.0000 </r>
       <r>   -14.3290     0.0005    12.0000 </r>
       <r>   -14.2454     0.9625    12.0806 </r>
       <r>   -14.1617    16.5368    13.4643 </r>
       <r>   -14.0780     6.3688    13.9972 </r>
       <r>   -13.9943     0.0340    14.0000 </r>
       <r>   -13.9107     0.5738    14.0480 </r>
       <r>   -13.8270    14.9996    15.3031 </r>
       <r>   -13.7433     8.7603    16.0361 </r>
       <r>   -13.6596    14.6345    17.2606 </r>
       <r>   -13.5760     8.7532    17.9931 </r>
       <r>   -13.4923     0.0830    18.0000 </r>
       <r>   -13.4086     0.0000    18.0000 </r>
       <r>   -13.3249     0.0000    18.0000 </r>
       <r>   -13.2413     0.0000    18.0000 </r>
       <r>   -13.1576     0.0000    18.0000 </r>
       <r>   -13.0739     0.0000    18.0000 </r>
       <r>   -12.9902     0.0000    18.0000 </r>
       <r>   -12.9066     0.0000    18.0000 </r>
       <r>   -12.8229     0.0000    18.0000 </r>
       <r>   -12.7392     0.0000    18.0000 </r>
       <r>   -12.6556     0.0000    18.0000 </r>
       <r>   -12.5719     0.0000    18.0000 </r>
       <r>   -12.4882     0.0000    18.0000 </r>
       <r>   -12.4045     0.0000    18.0000 </r>
       <r>   -12.3209     0.0000    18.0000 </r>
       <r>   -12.2372     0.0020    18.0002 </r>
       <r>   -12.1535     1.9185    18.1607 </r>
       <r>   -12.0698    17.9771    19.6649 </r>
       <r>   -11.9862     3.9943    19.9991 </r>
       <r>   -11.9025     0.0104    20.0000 </r>
       <r>   -11.8188     0.0000    20.0000 </r>
       <r>   -11.7351     0.0000    20.0000 </r>
       <r>   -11.6515     0.0000    20.0000 </r>
       <r>   -11.5678     0.0000    20.0000 </r>
       <r>   -11.4841     0.0122    20.0010 </r>
       <r>   -11.4004     4.2676    20.3581 </r>
       <r>   -11.3168    17.8572    21.8523 </r>
       <r>   -11.2331     1.7636    21.9999 </r>
       <r>   -11.1494     0.0601    22.0049 </r>
       <r>   -11.0657     7.7663    22.6547 </r>
       <r>   -10.9821    15.4210    23.9451 </r>
       <r>   -10.8984     0.6566    24.0000 </r>
       <r>   -10.8147     0.8730    24.0731 </r>
       <r>   -10.7310    16.2669    25.4342 </r>
       <r>   -10.6474     6.7230    25.9967 </r>
       <r>   -10.5637     0.0391    26.0000 </r>
       <r>   -10.4800     0.0338    26.0028 </r>
       <r>   -10.3964     6.3700    26.5358 </r>
       <r>   -10.3127    16.5359    27.9195 </r>
       <r>   -10.2290     1.0031    28.0034 </r>
       <r>   -10.1453     6.8392    28.5757 </r>
       <r>   -10.0617    16.1767    29.9292 </r>
       <r>    -9.9780     0.8455    30.0000 </r>
       <r>    -9.8943     0.0004    30.0000 </r>
       <r>    -9.8106     0.0000    30.0000 </r>
       <r>    -9.7270     0.0255    30.0021 </r>
       <r>    -9.6433     5.7237    30.4811 </r>
       <r>    -9.5596    17.0004    31.9036 </r>
       <r>    -9.4759     2.2851    32.0948 </r>
       <r>    -9.3923    16.9574    33.5137 </r>
       <r>    -9.3086     5.7862    33.9978 </r>
       <r>    -9.2249     0.0262    34.0000 </r>
       <r>    -9.1412     0.0000    34.0000 </r>
       <r>    -9.0576     0.0001    34.0000 </r>
       <r>    -8.9739     0.4348    34.0364 </r>
       <r>    -8.8902    14.0981    35.2160 </r>
       <r>    -8.8065     9.8451    36.0398 </r>
       <r>    -8.7229    15.1028    37.3035 </r>
       <r>    -8.6392     8.2538    37.9942 </r>
       <r>    -8.5555     0.2376    38.0140 </r>
       <r>    -8.4718    10.9320    38.9288 </r>
       <r>    -8.3882    12.5303    39.9772 </r>
       <r>    -8.3045     0.2721    40.0000 </r>
       <r>    -8.2208     0.0019    40.0002 </r>
       <r>    -8.1372     1.8511    40.1550 </r>
       <r>    -8.0535    18.8661    41.7336 </r>
       <r>    -7.9698    20.5770    43.4554 </r>
       <r>    -7.8861     6.4733    43.9971 </r>
       <r>    -7.8025     0.0352    44.0000 </r>
       <r>    -7.7188     0.3734    44.0312 </r>
       <r>    -7.6351    16.1999    45.3868 </r>
       <r>    -7.5514    28.0941    47.7375 </r>
       <r>    -7.4678     3.1555    48.0015 </r>
       <r>    -7.3841     5.5792    48.4684 </r>
       <r>    -7.3004    17.3141    49.9171 </r>
       <r>    -7.2167    12.9897    51.0040 </r>
       <r>    -7.1331    20.3006    52.7027 </r>
       <r>    -7.0494    14.9727    53.9555 </r>
       <r>    -6.9657     0.5319    54.0000 </r>
       <r>    -6.8820     0.0001    54.0000 </r>
       <r>    -6.7984     0.0000    54.0000 </r>
       <r>    -6.7147     0.0000    54.0000 </r>
       <r>    -6.6310     0.0000    54.0000 </r>
       <r>    -6.5473     0.0000    54.0000 </r>
       <r>    -6.4637     0.0000    54.0000 </r>
       <r>    -6.3800     0.0000    54.0000 </r>
       <r>    -6.2963     0.0000    54.0000 </r>
       <r>    -6.2126     0.0000    54.0000 </r>
       <r>    -6.1290     0.0000    54.0000 </r>
       <r>    -6.0453     0.0000    54.0000 </r>
       <r>    -5.9616     0.0000    54.0000 </r>
       <r>    -5.8780     0.0000    54.0000 </r>
       <r>    -5.7943     0.0000    54.0000 </r>
       <r>    -5.7106     0.0000    54.0000 </r>
       <r>    -5.6269     0.0000    54.0000 </r>
       <r>    -5.5433     0.0000    54.0000 </r>
       <r>    -5.4596     0.0000    54.0000 </r>
       <r>    -5.3759     0.0000    54.0000 </r>
       <r>    -5.2922     0.0000    54.0000 </r>
       <r>    -5.2086     0.0000    54.0000 </r>
       <r>    -5.1249     0.0000    54.0000 </r>
       <r>    -5.0412     0.1345    54.0113 </r>
       <r>    -4.9575    10.2215    54.8665 </r>
       <r>    -4.8739    13.2127    55.9721 </r>
       <r>    -4.7902     0.3335    56.0000 </r>
       <r>    -4.7065     0.0001    56.0000 </r>
       <r>    -4.6228     0.0000    56.0000 </r>
       <r>    -4.5392     0.0000    56.0000 </r>
       <r>    -4.4555     0.0000    56.0000 </r>
       <r>    -4.3718     0.0000    56.0000 </r>
       <r>    -4.2881     0.0000    56.0000 </r>
       <r>    -4.2045     0.0000    56.0000 </r>
       <r>    -4.1208     0.0000    56.0000 </r>
       <r>    -4.0371     0.0000    56.0000 </r>
       <r>    -3.9534     0.0000    56.0000 </r>
       <r>    -3.8698     0.0000    56.0000 </r>
       <r>    -3.7861     0.0000    56.0000 </r>
       <r>    -3.7024     0.0000    56.0000 </r>
       <r>    -3.6188     0.0000    56.0000 </r>
       <r>    -3.5351     0.0000    56.0000 </r>
       <r>    -3.4514     0.0000    56.0000 </r>
       <r>    -3.3677     0.0000    56.0000 </r>
       <r>    -3.2841     0.0000    56.0000 </r>
       <r>    -3.2004     0.0000    56.0000 </r>
       <r>    -3.1167     0.0000    56.0000 </r>
       <r>    -3.0330     0.0000    56.0000 </r>
       <r>    -2.9494     0.0000    56.0000 </r>
       <r>    -2.8657     0.0000    56.0000 </r>
       <r>    -2.7820     0.0000    56.0000 </r>
       <r>    -2.6983     0.0000    56.0000 </r>
       <r>    -2.6147     0.0000    56.0000 </r>
       <r>    -2.5310     0.0000    56.0000 </r>
       <r>    -2.4473     0.0000    56.0000 </r>
       <r>    -2.3636     0.0000    56.0000 </r>
       <r>    -2.2800     0.0000    56.0000 </r>
       <r>    -2.1963     0.0000    56.0000 </r>
       <r>    -2.1126     0.0000    56.0000 </r>
       <r>    -2.0289     0.0000    56.0000 </r>
       <r>    -1.9453     0.0000    56.0000 </r>
       <r>    -1.8616     0.0000    56.0000 </r>
       <r>    -1.7779     0.0000    56.0000 </r>
       <r>    -1.6942     0.0000    56.0000 </r>
       <r>    -1.6106     0.0000    56.0000 </r>
       <r>    -1.5269     0.0000    56.0000 </r>
       <r>    -1.4432     0.0000    56.0000 </r>
       <r>    -1.3596     0.0000    56.0000 </r>
       <r>    -1.2759     0.0000    56.0000 </r>
       <r>    -1.1922     0.0000    56.0000 </r>
       <r>    -1.1085     0.0000    56.0000 </r>
       <r>    -1.0249     0.0000    56.0000 </r>
       <r>    -0.9412     0.0000    56.0000 </r>
       <r>    -0.8575     0.0000    56.0000 </r>
       <r>    -0.7738     0.0000    56.0000 </r>
       <r>    -0.6902     0.0003    56.0000 </r>
       <r>    -0.6065     0.7762    56.0650 </r>
       <r>    -0.5228    15.9294    57.3979 </r>
       <r>    -0.4391     8.4205    58.1024 </r>
       <r>    -0.3555    17.2731    59.5477 </r>
       <r>    -0.2718     5.4981    60.0078 </r>
       <r>    -0.1881     9.7714    60.8254 </r>
       <r>    -0.1044    20.0768    62.5053 </r>
       <r>    -0.0208    34.4458    65.3875 </r>
       <r>     0.0629     7.3735    66.0045 </r>
       <r>     0.1466     9.7644    66.8215 </r>
       <r>     0.2303    33.2802    69.6062 </r>
       <r>     0.3139    28.2856    71.9730 </r>
       <r>     0.3976    27.1584    74.2454 </r>
       <r>     0.4813    35.1878    77.1898 </r>
       <r>     0.5650    26.2159    79.3833 </r>
       <r>     0.6486    29.4881    81.8507 </r>
       <r>     0.7323    23.8136    83.8433 </r>
       <r>     0.8160     1.9505    84.0065 </r>
       <r>     0.8996     8.6425    84.7297 </r>
       <r>     0.9833    14.6795    85.9580 </r>
       <r>     1.0670     5.1565    86.3894 </r>
       <r>     1.1507    17.6698    87.8679 </r>
       <r>     1.2343     1.5769    87.9999 </r>
       <r>     1.3180     0.0013    88.0000 </r>
       <r>     1.4017     0.0000    88.0000 </r>
       <r>     1.4854     0.0000    88.0000 </r>
       <r>     1.5690     0.0000    88.0000 </r>
       <r>     1.6527     0.0000    88.0000 </r>
       <r>     1.7364     0.0000    88.0000 </r>
       <r>     1.8201     0.0000    88.0000 </r>
       <r>     1.9037     0.0000    88.0000 </r>
       <r>     1.9874     0.0000    88.0000 </r>
       <r>     2.0711     0.0000    88.0000 </r>
       <r>     2.1548     0.0000    88.0000 </r>
       <r>     2.2384     0.0000    88.0000 </r>
      </set>
     </set>
    </array>
   </total>
  </dos>
 </calculation>
 <structure name="finalpos" >
  <crystal>
   <varray name="basis" >
    <v>      26.80760000       0.00000000       0.00000000 </v>
    <v>       0.00000000      17.24010000       0.00000000 </v>
    <v>       0.00000000       0.00000000      16.88150000 </v>
   </varray>
   <i name="volume">   7802.05034491 </i>
   <varray name="rec_basis" >
    <v>       0.03730285       0.00000000       0.00000000 </v>
    <v>       0.00000000       0.05800430       0.00000000 </v>
    <v>       0.00000000       0.00000000       0.05923644 </v>
   </varray>
  </crystal>
  <varray name="positions" >
   <v>       0.68735674       0.46837206       0.53059606 </v>
   <v>       0.50270040       0.48669688       0.45605893 </v>
   <v>       0.45472570       0.53168863       0.48127213 </v>
   <v>       0.55445052       0.53098011       0.46600807 </v>
   <v>       0.40822196       0.47910157       0.49562226 </v>
   <v>       0.59404783       0.47843672       0.50365132 </v>
   <v>       0.36118296       0.52208706       0.52355621 </v>
   <v>       0.64562726       0.51638126       0.50821948 </v>
   <v>       0.31626954       0.46602074       0.52418616 </v>
   <v>       0.50612401       0.43105943       0.48716496 </v>
   <v>       0.49515792       0.46910900       0.39429105 </v>
   <v>       0.44398324       0.58311087       0.43330976 </v>
   <v>       0.46332518       0.56257146       0.53706635 </v>
   <v>       0.56819778       0.55624455       0.41106625 </v>
   <v>       0.54528287       0.57765716       0.51325205 </v>
   <v>       0.41470701       0.43377222       0.54266143 </v>
   <v>       0.39976785       0.44534648       0.43869993 </v>
   <v>       0.58097448       0.46138088       0.56420870 </v>
   <v>       0.59810447       0.42220067       0.47263554 </v>
   <v>       0.35631894       0.57390933       0.48160846 </v>
   <v>       0.36890320       0.54595336       0.58075238 </v>
   <v>       0.64156868       0.56984015       0.54898448 </v>
   <v>       0.65049366       0.53730289       0.44389492 </v>
   <v>       0.30559779       0.44504272       0.46419804 </v>
   <v>       0.28155012       0.49424589       0.54619787 </v>
   <v>       0.32231430       0.41629016       0.56502048 </v>
   <v>       0.71892657       0.50153287       0.53913258 </v>
   <v>       0.69224408       0.42134698       0.49473220 </v>
  </varray>
 </structure>
</modeling>
