   17   17 5000    1
  0.2149333E+03  0.1540225E-08  0.1540225E-08  0.1540225E-08  0.1000000E-15
  1.000000000000000E-004
  CAR 
 unknown system                          
     42      1     30
 
  0.0000000E+00  0.0000000E+00  0.0000000E+00  0.1000000E+01
      1        -22.254093   1.000000
      2        -21.182691   1.000000
      3        -19.101433   1.000000
      4        -18.639129   1.000000
      5        -15.958616   1.000000
      6        -15.391597   1.000000
      7        -12.992860   1.000000
      8        -12.723123   1.000000
      9        -12.453859   1.000000
     10        -10.780737   1.000000
     11        -10.565414   1.000000
     12        -10.249305   1.000000
     13         -9.813926   1.000000
     14         -9.566276   1.000000
     15         -8.744856   1.000000
     16         -8.539935   1.000000
     17         -8.253705   1.000000
     18         -7.755642   1.000000
     19         -7.554914   1.000000
     20         -7.516167   1.000000
     21         -6.199662   1.000000
     22         -1.061495   0.000000
     23         -0.687585   0.000000
     24         -0.208871   0.000000
     25         -0.182645   0.000000
     26         -0.013912   0.000000
     27          0.122793   0.000000
     28          0.194799   0.000000
     29          0.381838   0.000000
     30          0.496709   0.000000
