 vasp.6.3.2 27Jun22 (build Oct 05 2023 17:59:42) gamma-only                     
  
 executed on             LinuxIFC date 2024.04.05  18:28:44
 running on   18 total cores
 each image running on    2 cores
 distrk:  each k-point on    2 cores,    1 groups
 distr:  one band on NCORE=   1 cores,    2 groups


--------------------------------------------------------------------------------------------------------


 INCAR:
   ENCUT = 400.000000
   SIGMA = 0.050000
   ALGO = Fast
   GGA = PE
   ISMEAR = 0
   ISPIN = 1
   IVDW = 11
   LCHARG = .FALSE.
   LWAVE = .FALSE.
   EDIFF = 1E-05
   EDIFFG = -0.05
   NSW = 5000
   IBRION = 1
   SPRING = -5
   POTIM = 0.1
   PREC = NORMAL
   IMAGES = 9
   LCLIMB = .TRUE.

 POTCAR:    PAW_PBE C 08Apr2002                   
 POTCAR:    PAW_PBE H 15Jun2001                   
 POTCAR:    PAW_PBE N 08Apr2002                   
 POTCAR:    PAW_PBE C 08Apr2002                   
   SHA256 =  253f7b50bb8d59471dbedb8285d89021f4a42ed1a2c5d38a03a736e69125dd95 C/POTCAR              
   COPYR  = (c) Copyright 08Apr2002 Georg Kresse                                                    
   COPYR  = This file is part of the software VASP. Any use, copying, and all other rights are regul
   COPYR  = If you do not have a valid VASP license, you may not use, copy or distribute this file. 
   VRHFIN =C: s2p2                                                                                  
   LEXCH  = PE                                                                                      
   EATOM  =   147.1560 eV,   10.8157 Ry                                                             
                                                                                                    
   TITEL  = PAW_PBE C 08Apr2002                                                                     
   LULTRA =        F    use ultrasoft PP ?                                                          
   IUNSCR =        1    unscreen: 0-lin 1-nonlin 2-no                                               
   RPACOR =    1.200    partial core radius                                                         
   POMASS =   12.011; ZVAL   =    4.000    mass and valenz                                          
   RCORE  =    1.500    outmost cutoff radius                                                       
   RWIGS  =    1.630; RWIGS  =    0.863    wigner-seitz radius (au A)                               
   ENMAX  =  400.000; ENMIN  =  300.000 eV                                                          
   ICORE  =        2    local potential                                                             
   LCOR   =        T    correct aug charges                                                         
   LPAW   =        T    paw PP                                                                      
   EAUG   =  644.873                                                                                
   DEXC   =    0.000                                                                                
   RMAX   =    1.529    core radius for proj-oper                                                   
   RAUG   =    1.300    factor for augmentation sphere                                              
   RDEP   =    1.501    radius for radial grids                                                     
   RDEPT  =    1.300    core radius for aug-charge                                                  
                                                                                                    
   Atomic configuration                                                                             
    4 entries                                                                                       
     n  l   j            E        occ.                                                              
     1  0  0.50      -273.3789   2.0000                                                             
     2  0  0.50       -13.7508   2.0000                                                             
     2  1  0.50        -5.2854   2.0000                                                             
     3  2  1.50        -5.4423   0.0000                                                             
   Description                                                                                      
     l       E           TYP  RCUT    TYP  RCUT                                                     
     0    -13.7508458     23  1.200                                                                 
     0     -8.2022199     23  1.200                                                                 
     1     -5.2854383     23  1.500                                                                 
     1     34.0145650     23  1.500                                                                 
     2     -5.4423304      7  1.500                                                                 
  local pseudopotential read in
  partial core-charges read in
  partial kinetic energy density read in
  atomic valenz-charges read in
  non local Contribution for L=           0  read in
    real space projection operators read in
  non local Contribution for L=           0  read in
    real space projection operators read in
  non local Contribution for L=           1  read in
    real space projection operators read in
  non local Contribution for L=           1  read in
    real space projection operators read in
    PAW grid and wavefunctions read in
 
   number of l-projection  operators is LMAX  =           4
   number of lm-projection operators is LMMAX =           8
 
 POTCAR:    PAW_PBE H 15Jun2001                   
   SHA256 =  030f79b5d3ab3cf0e668861823c8fb652ff669f3e15e46930bd03bfd63a607b6 H/POTCAR              
   COPYR  = (c) Copyright 15Jun2001 Georg Kresse                                                    
   COPYR  = This file is part of the software VASP. Any use, copying, and all other rights are regul
   COPYR  = If you do not have a valid VASP license, you may not use, copy or distribute this file. 
   VRHFIN =H: ultrasoft test                                                                        
   LEXCH  = PE                                                                                      
   EATOM  =    12.4884 eV,    0.9179 Ry                                                             
                                                                                                    
   TITEL  = PAW_PBE H 15Jun2001                                                                     
   LULTRA =        F    use ultrasoft PP ?                                                          
   IUNSCR =        0    unscreen: 0-lin 1-nonlin 2-no                                               
   RPACOR =    0.000    partial core radius                                                         
   POMASS =    1.000; ZVAL   =    1.000    mass and valenz                                          
   RCORE  =    1.100    outmost cutoff radius                                                       
   RWIGS  =    0.700; RWIGS  =    0.370    wigner-seitz radius (au A)                               
   ENMAX  =  250.000; ENMIN  =  200.000 eV                                                          
   RCLOC  =    0.701    cutoff for local pot                                                        
   LCOR   =        T    correct aug charges                                                         
   LPAW   =        T    paw PP                                                                      
   EAUG   =  400.000                                                                                
   RMAX   =    1.123    core radius for proj-oper                                                   
   RAUG   =    1.200    factor for augmentation sphere                                              
   RDEP   =    1.112    radius for radial grids                                                     
   RDEPT  =    0.926    core radius for aug-charge                                                  
                                                                                                    
   Atomic configuration                                                                             
    2 entries                                                                                       
     n  l   j            E        occ.                                                              
     1  0  0.50        -6.4927   1.0000                                                             
     2  1  0.50        -3.4015   0.0000                                                             
   Description                                                                                      
     l       E           TYP  RCUT    TYP  RCUT                                                     
     0     -6.4927494     23  1.100                                                                 
     0      6.8029130     23  1.100                                                                 
     1     -4.0817478     23  1.100                                                                 
  local pseudopotential read in
  atomic valenz-charges read in
  non local Contribution for L=           0  read in
    real space projection operators read in
  non local Contribution for L=           0  read in
    real space projection operators read in
  non local Contribution for L=           1  read in
    real space projection operators read in
    PAW grid and wavefunctions read in
 
   number of l-projection  operators is LMAX  =           3
   number of lm-projection operators is LMMAX =           5
 
 POTCAR:    PAW_PBE N 08Apr2002                   
   SHA256 =  e053789ff3a61a86a1b75d8a110fcc91f86041011e7b0817c7c99e4e8a6349d7 N/POTCAR              
   COPYR  = (c) Copyright 08Apr2002 Georg Kresse                                                    
   COPYR  = This file is part of the software VASP. Any use, copying, and all other rights are regul
   COPYR  = If you do not have a valid VASP license, you may not use, copy or distribute this file. 
   VRHFIN =N: s2p3                                                                                  
   LEXCH  = PE                                                                                      
   EATOM  =   264.5486 eV,   19.4438 Ry                                                             
                                                                                                    
   TITEL  = PAW_PBE N 08Apr2002                                                                     
   LULTRA =        F    use ultrasoft PP ?                                                          
   IUNSCR =        1    unscreen: 0-lin 1-nonlin 2-no                                               
   RPACOR =    1.200    partial core radius                                                         
   POMASS =   14.001; ZVAL   =    5.000    mass and valenz                                          
   RCORE  =    1.500    outmost cutoff radius                                                       
   RWIGS  =    1.400; RWIGS  =    0.741    wigner-seitz radius (au A)                               
   ENMAX  =  400.000; ENMIN  =  300.000 eV                                                          
   ICORE  =        2    local potential                                                             
   LCOR   =        T    correct aug charges                                                         
   LPAW   =        T    paw PP                                                                      
   EAUG   =  627.112                                                                                
   DEXC   =    0.000                                                                                
   RMAX   =    1.529    core radius for proj-oper                                                   
   RAUG   =    1.300    factor for augmentation sphere                                              
   RDEP   =    1.514    radius for radial grids                                                     
   RDEPT  =    1.338    core radius for aug-charge                                                  
                                                                                                    
   Atomic configuration                                                                             
    4 entries                                                                                       
     n  l   j            E        occ.                                                              
     1  0  0.50      -384.7179   2.0000                                                             
     2  0  0.50       -18.5828   2.0000                                                             
     2  1  0.50        -7.0898   3.0000                                                             
     3  2  1.50        -6.8029   0.0000                                                             
   Description                                                                                      
     l       E           TYP  RCUT    TYP  RCUT                                                     
     0    -18.5828119     23  1.200                                                                 
     0    -13.5018863     23  1.200                                                                 
     1     -7.0897853     23  1.500                                                                 
     1      9.5240782     23  1.500                                                                 
     2     -6.8029130      7  1.500                                                                 
  local pseudopotential read in
  partial core-charges read in
  partial kinetic energy density read in
  atomic valenz-charges read in
  non local Contribution for L=           0  read in
    real space projection operators read in
  non local Contribution for L=           0  read in
    real space projection operators read in
  non local Contribution for L=           1  read in
    real space projection operators read in
  non local Contribution for L=           1  read in
    real space projection operators read in
    PAW grid and wavefunctions read in
 
   number of l-projection  operators is LMAX  =           4
   number of lm-projection operators is LMMAX =           8
 
 -----------------------------------------------------------------------------
|                                                                             |
|               ----> ADVICE to this user running VASP <----                  |
|                                                                             |
|     You have a (more or less) 'large supercell' and for larger cells it     |
|     might be more efficient to use real-space projection operators.         |
|     Therefore, try LREAL= Auto in the INCAR file.                           |
|     Mind: For very accurate calculation, you might also keep the            |
|     reciprocal projection scheme (i.e. LREAL=.FALSE.).                      |
|                                                                             |
 -----------------------------------------------------------------------------

  PAW_PBE C 08Apr2002                   :
 energy of atom  1       EATOM= -147.1560
 kinetic energy error for atom=    0.0288 (will be added to EATOM!!)
  PAW_PBE H 15Jun2001                   :
 energy of atom  2       EATOM=  -12.4884
 kinetic energy error for atom=    0.0098 (will be added to EATOM!!)
  PAW_PBE N 08Apr2002                   :
 energy of atom  3       EATOM= -264.5486
 kinetic energy error for atom=    0.0736 (will be added to EATOM!!)
 
 
 POSCAR:  C  H  N
  positions in cartesian coordinates
  No initial velocities read in
 exchange correlation table for  LEXCH =        8
   RHO(1)=    0.500       N(1)  =     2000
   RHO(2)=  100.500       N(2)  =     4000

 VTST: version 4.1, (05/19/21)

 CHAIN: initializing optimizer
 
 OPT: Using VASP QUASI-newton optimizer
 CHAIN: Read ICHAIN            0
 CHAIN: Running the NEB
 NEB:          SPRING     -5.000000
 NEB:          LCLIMB      T
 NEB:     LTANGENTOLD      F
 NEB:           LDNEB      F
 NEB:        LDNEBORG      F
 NEB:        LNEBCELL      F
 NEB:          EFIRST      0.000000
 NEB:           ELAST      0.000000
 
 POSCAR:  C  H  N
  positions in cartesian coordinates
  No initial velocities read in
 
 POSCAR:  C  H  N
  positions in cartesian coordinates
  No initial velocities read in
 
 POSCAR:  C  H  N
  positions in cartesian coordinates
  No initial velocities read in
 
 POSCAR:  C  H  N
  positions in cartesian coordinates
  No initial velocities read in
 


--------------------------------------------------------------------------------------------------------


 ion  position               nearest neighbor table
   1  0.335  0.440  0.564-   8 1.09   2 1.34   4 1.49
   2  0.332  0.526  0.568-  11 1.09   1 1.34   3 1.49
   3  0.415  0.575  0.555-  13 1.09  12 1.10   2 1.49   6 1.55
   4  0.421  0.398  0.551-  10 1.09   9 1.10   1 1.49   5 1.55
   5  0.472  0.440  0.475-  15 1.09  14 1.09   4 1.55   6 1.55
   6  0.460  0.540  0.473-  16 1.09   7 1.45   5 1.55   3 1.55
   7  0.542  0.583  0.455-  17 1.17   6 1.45
   8  0.276  0.401  0.568-   1 1.09
   9  0.461  0.408  0.608-   4 1.10
  10  0.416  0.327  0.541-   4 1.09
  11  0.271  0.562  0.576-   2 1.09
  12  0.460  0.565  0.609-   3 1.10
  13  0.404  0.645  0.549-   3 1.09
  14  0.452  0.413  0.413-   5 1.09
  15  0.540  0.424  0.483-   5 1.09
  16  0.417  0.555  0.418-   6 1.09
  17  0.608  0.617  0.441-   7 1.17
 
  LATTYP: Found a simple cubic cell.
 ALAT       =    15.4022502899
  
  Lattice vectors:
  
 A1 = (  15.4022502899,   0.0000000000,   0.0000000000)
 A2 = (   0.0000000000,  15.4022502899,   0.0000000000)
 A3 = (   0.0000000000,   0.0000000000,  15.4022502899)


Analysis of symmetry for initial positions (statically):
=====================================================================
 Subroutine PRICEL returns:
 Original cell was already a primitive cell.
 

 Routine SETGRP: Setting up the symmetry group for a 
 simple cubic supercell.


 Subroutine GETGRP returns: Found  1 space group operations
 (whereof  1 operations were pure point group operations)
 out of a pool of 48 trial point group operations.


The static configuration has the point symmetry C_1 .


Analysis of symmetry for dynamics (positions and initial velocities):
=====================================================================
 Subroutine PRICEL returns:
 Original cell was already a primitive cell.
 

 Routine SETGRP: Setting up the symmetry group for a 
 simple cubic supercell.


 Subroutine GETGRP returns: Found  1 space group operations
 (whereof  1 operations were pure point group operations)
 out of a pool of 48 trial point group operations.


The dynamic configuration has the point symmetry C_1 .


 Subroutine INISYM returns: Found  1 space group operations
 (whereof  1 operations are pure point group operations),
 and found     1 'primitive' translations


----------------------------------------------------------------------------------------

                                     Primitive cell                                     

  volume of cell :    3653.8653

  direct lattice vectors                    reciprocal lattice vectors
    15.402250290  0.000000000  0.000000000     0.064925578  0.000000000  0.000000000
     0.000000000 15.402250290  0.000000000     0.000000000  0.064925578  0.000000000
     0.000000000  0.000000000 15.402250290     0.000000000  0.000000000  0.064925578

  length of vectors
    15.402250290 15.402250290 15.402250290     0.064925578  0.064925578  0.064925578

  position of ions in fractional coordinates (direct lattice)
     0.334549507  0.439637861  0.564002033
     0.332124560  0.526434922  0.567815253
     0.414744716  0.575400689  0.554978443
     0.420583815  0.397615095  0.550510488
     0.471921470  0.440182948  0.475435073
     0.460216704  0.539906097  0.472644806
     0.542027101  0.583116499  0.455475229
     0.275746862  0.400647914  0.568499542
     0.461272235  0.407747107  0.608036136
     0.415690959  0.327427701  0.541145445
     0.271480831  0.561746270  0.576398236
     0.460171110  0.565157577  0.608732984
     0.404264792  0.645423545  0.549279163
     0.451763493  0.413278434  0.413016750
     0.540428046  0.423892841  0.482863449
     0.417160896  0.555411251  0.418267842
     0.608146991  0.616991020  0.440932184

  ion indices of the primitive-cell ions
   primitive index   ion index
                 1           1
                 2           2
                 3           3
                 4           4
                 5           5
                 6           6
                 7           7
                 8           8
                 9           9
                10          10
                11          11
                12          12
                13          13
                14          14
                15          15
                16          16
                17          17

----------------------------------------------------------------------------------------

 
 
 KPOINTS: KPOINTS created by Atomic Simulation Env

Automatic generation of k-mesh.
 Grid dimensions read from file:
 generate k-points for:    1    1    1

 Generating k-lattice:

  Cartesian coordinates                     Fractional coordinates (reciprocal lattice)
     0.064925578  0.000000000  0.000000000     1.000000000  0.000000000  0.000000000
     0.000000000  0.064925578  0.000000000     0.000000000  1.000000000  0.000000000
     0.000000000  0.000000000  0.064925578     0.000000000  0.000000000  1.000000000

  Length of vectors
     0.064925578  0.064925578  0.064925578

  Shift w.r.t. Gamma in fractional coordinates (k-lattice)
     0.000000000  0.000000000  0.000000000

 
 Subroutine IBZKPT returns following result:
 ===========================================
 
 Found      1 irreducible k-points:
 
 Following reciprocal coordinates:
            Coordinates               Weight
  0.000000  0.000000  0.000000      1.000000
 
 Following cartesian coordinates:
            Coordinates               Weight
  0.000000  0.000000  0.000000      1.000000
 


--------------------------------------------------------------------------------------------------------




 Dimension of arrays:
   k-points           NKPTS =      1   k-points in BZ     NKDIM =      1   number of bands    NBANDS=     30
   number of dos      NEDOS =    301   number of ions     NIONS =     17
   non local maximal  LDIM  =      4   non local SUM 2l+1 LMDIM =      8
   total plane-waves  NPLWV = 512000
   max r-space proj   IRMAX =      1   max aug-charges    IRDMAX=   1924
   dimension x,y,z NGX =    80 NGY =   80 NGZ =   80
   dimension x,y,z NGXF=   160 NGYF=  160 NGZF=  160
   support grid    NGXF=   160 NGYF=  160 NGZF=  160
   ions per type =               7   9   1
   NGX,Y,Z   is equivalent  to a cutoff of   8.63,  8.63,  8.63 a.u.
   NGXF,Y,Z  is equivalent  to a cutoff of  17.27, 17.27, 17.27 a.u.

 SYSTEM =  unknown system                          
 POSCAR =   C  H  N                                

 Startparameter for this run:
   NWRITE =      2    write-flag & timer
   PREC   = normal    normal or accurate (medium, high low for compatibility)
   ISTART =      0    job   : 0-new  1-cont  2-samecut
   ICHARG =      2    charge: 1-file 2-atom 10-const
   ISPIN  =      1    spin polarized calculation?
   LNONCOLLINEAR =      F non collinear calculations
   LSORBIT =      F    spin-orbit coupling
   INIWAV =      1    electr: 0-lowe 1-rand  2-diag
   LASPH  =      F    aspherical Exc in radial PAW
 Electronic Relaxation 1
   ENCUT  =  400.0 eV  29.40 Ry    5.42 a.u.  25.12 25.12 25.12*2*pi/ulx,y,z
   ENINI  =  400.0     initial cutoff
   ENAUG  =  644.9 eV  augmentation charge cutoff
   NELM   =     60;   NELMIN=  2; NELMDL= -5     # of ELM steps 
   EDIFF  = 0.1E-04   stopping-criterion for ELM
   LREAL  =      F    real-space projection
   NLSPLINE    = F    spline interpolate recip. space projectors
   LCOMPAT=      F    compatible to vasp.4.4
   GGA_COMPAT  = T    GGA compatible to vasp.4.4-vasp.4.6
   LMAXPAW     = -100 max onsite density
   LMAXMIX     =    2 max onsite mixed and CHGCAR
   VOSKOWN=      0    Vosko Wilk Nusair interpolation
   ROPT   =    0.00000   0.00000   0.00000
 Ionic relaxation
   EDIFFG = -.5E-01   stopping-criterion for IOM
   NSW    =   5000    number of steps for IOM
   NBLOCK =      1;   KBLOCK =   5000    inner block; outer block 
   IBRION =      1    ionic relax: 0-MD 1-quasi-New 2-CG
   NFREE  =      0    steps in history (QN), initial steepest desc. (CG)
   ISIF   =      2    stress and relaxation
   IWAVPR =     11    prediction:  0-non 1-charg 2-wave 3-comb
   ISYM   =      2    0-nonsym 1-usesym 2-fastsym
   LCORR  =      T    Harris-Foulkes like correction to forces

   POTIM  = 0.1000    time-step for ionic-motion
   TEIN   =    0.0    initial temperature
   TEBEG  =    0.0;   TEEND  =   0.0 temperature during run
   SMASS  =  -3.00    Nose mass-parameter (am)
   estimated Nose-frequenzy (Omega)   =  0.10E-29 period in steps = 0.63E+47 mass=  -0.542E-26a.u.
   SCALEE = 1.0000    scale energy and forces
   NPACO  =    256;   APACO  = 10.0  distance and # of slots for P.C.
   PSTRESS=    0.0 pullay stress

  Mass of Ions in am
   POMASS =  12.01  1.00 14.00
  Ionic Valenz
   ZVAL   =   4.00  1.00  5.00
  Atomic Wigner-Seitz radii
   RWIGS  =  -1.00 -1.00 -1.00
  virtual crystal weights 
   VCA    =   1.00  1.00  1.00
   NELECT =      42.0000    total number of electrons
   NUPDOWN=      -1.0000    fix difference up-down

 DOS related values:
   EMIN   =  10.00;   EMAX   =-10.00  energy-range for DOS
   EFERMI =   0.00
   ISMEAR =     0;   SIGMA  =   0.05  broadening in eV -4-tet -1-fermi 0-gaus

 Electronic relaxation 2 (details)
   IALGO  =     68    algorithm
   LDIAG  =      T    sub-space diagonalisation (order eigenvalues)
   LSUBROT=      F    optimize rotation matrix (better conditioning)
   TURBO    =      0    0=normal 1=particle mesh
   IRESTART =      0    0=no restart 2=restart with 2 vectors
   NREBOOT  =      0    no. of reboots
   NMIN     =      0    reboot dimension
   EREF     =   0.00    reference energy to select bands
   IMIX   =      4    mixing-type and parameters
     AMIX     =   0.40;   BMIX     =  1.00
     AMIX_MAG =   1.60;   BMIX_MAG =  1.00
     AMIN     =   0.10
     WC   =   100.;   INIMIX=   1;  MIXPRE=   1;  MAXMIX= -45

 Intra band minimization:
   WEIMIN = 0.0010     energy-eigenvalue tresh-hold
   EBREAK =  0.83E-07  absolut break condition
   DEPER  =   0.30     relativ break condition  

   TIME   =   0.40     timestep for ELM

  volume/ion in A,a.u.               =     214.93      1450.44
  Fermi-wavevector in a.u.,A,eV,Ry     =   0.369465  0.698188  1.857259  0.136505
  Thomas-Fermi vector in A             =   1.296107
 
 Write flags
   LWAVE        =      F    write WAVECAR
   LDOWNSAMPLE  =      F    k-point downsampling of WAVECAR
   LCHARG       =      F    write CHGCAR
   LVTOT        =      F    write LOCPOT, total local potential
   LVHAR        =      F    write LOCPOT, Hartree potential only
   LELF         =      F    write electronic localiz. function (ELF)
   LORBIT       =      0    0 simple, 1 ext, 2 COOP (PROOUT), +10 PAW based schemes


 Dipole corrections
   LMONO  =      F    monopole corrections only (constant potential shift)
   LDIPOL =      F    correct potential (dipole corrections)
   IDIPOL =      0    1-x, 2-y, 3-z, 4-all directions 
   EPSILON=  1.0000000 bulk dielectric constant

 Exchange correlation treatment:
   GGA     =    PE    GGA type
   LEXCH   =     8    internal setting for exchange type
   LIBXC   =     F    Libxc                    
   VOSKOWN =     0    Vosko Wilk Nusair interpolation
   LHFCALC =     F    Hartree Fock is set to
   LHFONE  =     F    Hartree Fock one center treatment
   AEXX    =    0.0000 exact exchange contribution

 Linear response parameters
   LEPSILON=     F    determine dielectric tensor
   LRPA    =     F    only Hartree local field effects (RPA)
   LNABLA  =     F    use nabla operator in PAW spheres
   LVEL    =     F    velocity operator in full k-point grid
   CSHIFT  =0.1000    complex shift for real part using Kramers Kronig
   OMEGAMAX=  -1.0    maximum frequency
   DEG_THRESHOLD= 0.2000000E-02 threshold for treating states as degnerate
   RTIME   =   -0.100 relaxation time in fs
  (WPLASMAI=    0.000 imaginary part of plasma frequency in eV, 0.658/RTIME)
   DFIELD  = 0.0000000 0.0000000 0.0000000 field for delta impulse in time
 
  Optional k-point grid parameters
   LKPOINTS_OPT  =     F    use optional k-point grid
   KPOINTS_OPT_MODE=     1    mode for optional k-point grid
 
 Orbital magnetization related:
   ORBITALMAG=     F  switch on orbital magnetization
   LCHIMAG   =     F  perturbation theory with respect to B field
   DQ        =  0.001000  dq finite difference perturbation B field
   LLRAUG    =     F  two centre corrections for induced B field



--------------------------------------------------------------------------------------------------------


 quasi-Newton-method for relaxation of ions
 charge density and potential will be updated during run
 non-spin polarized calculation
 RMM-DIIS sequential band-by-band and
  variant of blocked Davidson during initial phase
 perform sub-space diagonalisation
    before iterative eigenvector-optimisation
 modified Broyden-mixing scheme, WC =      100.0
 initial mixing is a Kerker type mixing with AMIX =  0.4000 and BMIX =      1.0000
 Hartree-type preconditioning will be used
 using additional bands            9
 reciprocal scheme for non local part
 use partial core corrections
 calculate Harris-corrections to forces 
   (improved forces if not selfconsistent)
 use gradient corrections 
 use of overlap-Matrix (Vanderbilt PP)
 Gauss-broadening in eV      SIGMA  =   0.05


--------------------------------------------------------------------------------------------------------


  energy-cutoff  :      400.00
  volume of cell :     3653.87
      direct lattice vectors                 reciprocal lattice vectors
    15.402250290  0.000000000  0.000000000     0.064925578  0.000000000  0.000000000
     0.000000000 15.402250290  0.000000000     0.000000000  0.064925578  0.000000000
     0.000000000  0.000000000 15.402250290     0.000000000  0.000000000  0.064925578

  length of vectors
    15.402250290 15.402250290 15.402250290     0.064925578  0.064925578  0.064925578


 
 k-points in units of 2pi/SCALE and weight: KPOINTS created by Atomic Simulation Env
   0.00000000  0.00000000  0.00000000       1.000
 
 k-points in reciprocal lattice and weights: KPOINTS created by Atomic Simulation Env
   0.00000000  0.00000000  0.00000000       1.000
 
 position of ions in fractional coordinates (direct lattice) 
   0.33454951  0.43963786  0.56400203
   0.33212456  0.52643492  0.56781525
   0.41474472  0.57540069  0.55497844
   0.42058382  0.39761510  0.55051049
   0.47192147  0.44018295  0.47543507
   0.46021670  0.53990610  0.47264481
   0.54202710  0.58311650  0.45547523
   0.27574686  0.40064791  0.56849954
   0.46127224  0.40774711  0.60803614
   0.41569096  0.32742770  0.54114545
   0.27148083  0.56174627  0.57639824
   0.46017111  0.56515758  0.60873298
   0.40426479  0.64542354  0.54927916
   0.45176349  0.41327843  0.41301675
   0.54042805  0.42389284  0.48286345
   0.41716090  0.55541125  0.41826784
   0.60814699  0.61699102  0.44093218
 
 position of ions in cartesian coordinates  (Angst):
   5.15281524  6.77141237  8.68690047
   5.11546560  8.10828243  8.74563264
   6.38800192  8.86246543  8.54791689
   6.47793719  6.12416722  8.47910032
   7.26865260  6.77980794  7.32277000
   7.08837286  8.31576885  7.27979361
   8.34843708  8.98130626  7.01534348
   4.24712218  6.17087944  8.75617224
   7.10463042  6.28022300  9.36512475
   6.40257620  5.04312340  8.33485759
   4.18141571  8.65215665  8.87782990
   7.08767062  8.70469846  9.37585778
   6.22658752  9.94097498  8.46013514
   6.95817440  6.36541789  6.36138736
   8.32380802  6.52890363  7.43718370
   6.42521653  8.55458310  6.44226599
   9.36683217  9.50305012  6.79134786
 


--------------------------------------------------------------------------------------------------------


 use serial FFT for orbitals x direction half grid
 k-point   1 :   0.0000 0.0000 0.0000  plane waves:   33270

 maximum and minimum number of plane-waves per node :     33270    33270

 maximum number of plane-waves:     33270
 maximum index in each direction: 
   IXMAX=   25   IYMAX=   25   IZMAX=   25
   IXMIN=    0   IYMIN=  -25   IZMIN=  -25


 serial   3D FFT for wavefunctions
 parallel 3D FFT for charge:
    minimum data exchange during FFTs selected (reduces bandwidth)


 total amount of memory used by VASP MPI-rank0   277942. kBytes
=======================================================================

   base      :      30000. kBytes
   nonl-proj :      15437. kBytes
   fftplans  :      71598. kBytes
   grid      :     152883. kBytes
   one-center:         26. kBytes
   wavefun   :       7998. kBytes
 
     INWAV:  cpu time      0.0001: real time      0.0001
 Broyden mixing: mesh for mixing (old mesh)
   NGX = 51   NGY = 51   NGZ = 51
  (NGX  =160   NGY  =160   NGZ  =160)
  gives a total of 132651 points

 initial charge density was supplied:
 charge density of overlapping atoms calculated
 number of electron      42.0000000 magnetization 
 keeping initial charge density in first step


--------------------------------------------------------------------------------------------------------


 Maximum index for augmentation-charges          837 (set IRDMAX)


--------------------------------------------------------------------------------------------------------


 First call to EWALD:  gamma=   0.115
 Maximum number of real-space cells 3x 3x 3
 Maximum number of reciprocal cells 3x 3x 3

    FEWALD:  cpu time      0.0005: real time      0.0005


--------------------------------------- Iteration      1(   1)  ---------------------------------------


    POTLOK:  cpu time      1.2334: real time      1.2448
    SETDIJ:  cpu time      0.0308: real time      0.0308
     EDDAV:  cpu time      2.5019: real time      2.5164
       DOS:  cpu time      0.0002: real time      0.0002
    --------------------------------------------
      LOOP:  cpu time      3.7664: real time      3.7922

 eigenvalue-minimisations  :    76
 total energy-change (2. order) : 0.3376731E+03  (-0.1014315E+04)
 number of electron      42.0000000 magnetization 
 augmentation part       42.0000000 magnetization 

 Free energy of the ion-electron system (eV)
  ---------------------------------------------------
  alpha Z        PSCENC =         2.15216506
  Ewald energy   TEWEN  =      2589.89119885
  -Hartree energ DENC   =     -3526.41136491
  -exchange      EXHF   =         0.00000000
  -V(xc)+E(xc)   XCENC  =       131.48245966
  PAW double counting   =       983.79330320     -989.05002801
  entropy T*S    EENTRO =        -0.00137513
  eigenvalues    EBANDS =      -260.85652372
  atomic energy  EATOM  =      1406.67326350
  Solvation  Ediel_sol  =         0.00000000
  ---------------------------------------------------
  free energy    TOTEN  =       337.67309850 eV

  energy without entropy =      337.67447363  energy(sigma->0) =      337.67378606


--------------------------------------------------------------------------------------------------------




--------------------------------------- Iteration      1(   2)  ---------------------------------------


     EDDAV:  cpu time      1.8981: real time      1.8988
       DOS:  cpu time      0.0001: real time      0.0001
    --------------------------------------------
      LOOP:  cpu time      1.8982: real time      1.8990

 eigenvalue-minimisations  :    88
 total energy-change (2. order) :-0.2665840E+03  (-0.2476245E+03)
 number of electron      42.0000000 magnetization 
 augmentation part       42.0000000 magnetization 

 Free energy of the ion-electron system (eV)
  ---------------------------------------------------
  alpha Z        PSCENC =         2.15216506
  Ewald energy   TEWEN  =      2589.89119885
  -Hartree energ DENC   =     -3526.41136491
  -exchange      EXHF   =         0.00000000
  -V(xc)+E(xc)   XCENC  =       131.48245966
  PAW double counting   =       983.79330320     -989.05002801
  entropy T*S    EENTRO =        -0.00000000
  eigenvalues    EBANDS =      -527.44189757
  atomic energy  EATOM  =      1406.67326350
  Solvation  Ediel_sol  =         0.00000000
  ---------------------------------------------------
  free energy    TOTEN  =        71.08909978 eV

  energy without entropy =       71.08909978  energy(sigma->0) =       71.08909978


--------------------------------------------------------------------------------------------------------




--------------------------------------- Iteration      1(   3)  ---------------------------------------


     EDDAV:  cpu time      1.6845: real time      1.6847
       DOS:  cpu time      0.0002: real time      0.0002
    --------------------------------------------
      LOOP:  cpu time      1.6847: real time      1.6849

 eigenvalue-minimisations  :    72
 total energy-change (2. order) :-0.1605249E+03  (-0.1599765E+03)
 number of electron      42.0000000 magnetization 
 augmentation part       42.0000000 magnetization 

 Free energy of the ion-electron system (eV)
  ---------------------------------------------------
  alpha Z        PSCENC =         2.15216506
  Ewald energy   TEWEN  =      2589.89119885
  -Hartree energ DENC   =     -3526.41136491
  -exchange      EXHF   =         0.00000000
  -V(xc)+E(xc)   XCENC  =       131.48245966
  PAW double counting   =       983.79330320     -989.05002801
  entropy T*S    EENTRO =        -0.00000000
  eigenvalues    EBANDS =      -687.96681479
  atomic energy  EATOM  =      1406.67326350
  Solvation  Ediel_sol  =         0.00000000
  ---------------------------------------------------
  free energy    TOTEN  =       -89.43581744 eV

  energy without entropy =      -89.43581744  energy(sigma->0) =      -89.43581744


--------------------------------------------------------------------------------------------------------




--------------------------------------- Iteration      1(   4)  ---------------------------------------


     EDDAV:  cpu time      1.9516: real time      1.9528
       DOS:  cpu time      0.0001: real time      0.0001
    --------------------------------------------
      LOOP:  cpu time      1.9517: real time      1.9529

 eigenvalue-minimisations  :    80
 total energy-change (2. order) :-0.2426470E+02  (-0.2420782E+02)
 number of electron      42.0000000 magnetization 
 augmentation part       42.0000000 magnetization 

 Free energy of the ion-electron system (eV)
  ---------------------------------------------------
  alpha Z        PSCENC =         2.15216506
  Ewald energy   TEWEN  =      2589.89119885
  -Hartree energ DENC   =     -3526.41136491
  -exchange      EXHF   =         0.00000000
  -V(xc)+E(xc)   XCENC  =       131.48245966
  PAW double counting   =       983.79330320     -989.05002801
  entropy T*S    EENTRO =        -0.00000000
  eigenvalues    EBANDS =      -712.23151744
  atomic energy  EATOM  =      1406.67326350
  Solvation  Ediel_sol  =         0.00000000
  ---------------------------------------------------
  free energy    TOTEN  =      -113.70052010 eV

  energy without entropy =     -113.70052010  energy(sigma->0) =     -113.70052010


--------------------------------------------------------------------------------------------------------




--------------------------------------- Iteration      1(   5)  ---------------------------------------


     EDDAV:  cpu time      1.9238: real time      1.9276
       DOS:  cpu time      0.0002: real time      0.0002
    CHARGE:  cpu time      0.1706: real time      0.1707
    MIXING:  cpu time      0.0658: real time      0.0658
    --------------------------------------------
      LOOP:  cpu time      2.1605: real time      2.1643

 eigenvalue-minimisations  :    88
 total energy-change (2. order) :-0.3565932E+00  (-0.3546920E+00)
 number of electron      41.9999973 magnetization 
 augmentation part        1.2076931 magnetization 

 Broyden mixing:
  rms(total) = 0.16950E+01    rms(broyden)= 0.16945E+01
  rms(prec ) = 0.19564E+01
  weight for this iteration     100.00

 Free energy of the ion-electron system (eV)
  ---------------------------------------------------
  alpha Z        PSCENC =         2.15216506
  Ewald energy   TEWEN  =      2589.89119885
  -Hartree energ DENC   =     -3526.41136491
  -exchange      EXHF   =         0.00000000
  -V(xc)+E(xc)   XCENC  =       131.48245966
  PAW double counting   =       983.79330320     -989.05002801
  entropy T*S    EENTRO =        -0.00000000
  eigenvalues    EBANDS =      -712.58811060
  atomic energy  EATOM  =      1406.67326350
  Solvation  Ediel_sol  =         0.00000000
  ---------------------------------------------------
  free energy    TOTEN  =      -114.05711325 eV

  energy without entropy =     -114.05711325  energy(sigma->0) =     -114.05711325


--------------------------------------------------------------------------------------------------------




--------------------------------------- Iteration      1(   6)  ---------------------------------------


    POTLOK:  cpu time      1.7929: real time      1.7953
    SETDIJ:  cpu time      0.0154: real time      0.0154
    EDDIAG:  cpu time      0.3874: real time      0.3878
  RMM-DIIS:  cpu time      1.8290: real time      1.8293
    ORTHCH:  cpu time      0.0100: real time      0.0100
       DOS:  cpu time      0.0002: real time      0.0002
    CHARGE:  cpu time      0.1842: real time      0.1842
    MIXING:  cpu time      0.0255: real time      0.0257
    --------------------------------------------
      LOOP:  cpu time      4.2446: real time      4.2478

 eigenvalue-minimisations  :    60
 total energy-change (2. order) : 0.8390092E+01  (-0.1127907E+01)
 number of electron      41.9999977 magnetization 
 augmentation part        1.1160287 magnetization 

 Broyden mixing:
  rms(total) = 0.92476E+00    rms(broyden)= 0.92465E+00
  rms(prec ) = 0.10496E+01
  weight for this iteration     100.00

 eigenvalues of (default mixing * dielectric matrix)
  average eigenvalue GAMMA=   1.6756
  1.6756

 Free energy of the ion-electron system (eV)
  ---------------------------------------------------
  alpha Z        PSCENC =         2.15216506
  Ewald energy   TEWEN  =      2589.89119885
  -Hartree energ DENC   =     -3609.42694712
  -exchange      EXHF   =         0.00000000
  -V(xc)+E(xc)   XCENC  =       135.55988092
  PAW double counting   =      1774.70606684    -1780.76335341
  entropy T*S    EENTRO =        -0.00000000
  eigenvalues    EBANDS =      -624.45929592
  atomic energy  EATOM  =      1406.67326350
  Solvation  Ediel_sol  =         0.00000000
  ---------------------------------------------------
  free energy    TOTEN  =      -105.66702129 eV

  energy without entropy =     -105.66702129  energy(sigma->0) =     -105.66702129


--------------------------------------------------------------------------------------------------------




--------------------------------------- Iteration      1(   7)  ---------------------------------------


    POTLOK:  cpu time      1.0711: real time      1.0716
    SETDIJ:  cpu time      0.0035: real time      0.0035
    EDDIAG:  cpu time      0.1808: real time      0.1808
  RMM-DIIS:  cpu time      1.6972: real time      1.7144
    ORTHCH:  cpu time      0.0134: real time      0.0134
       DOS:  cpu time      0.0002: real time      0.0002
    CHARGE:  cpu time      0.2607: real time      0.2607
    MIXING:  cpu time      0.0415: real time      0.0415
    --------------------------------------------
      LOOP:  cpu time      3.2683: real time      3.2862

 eigenvalue-minimisations  :    60
 total energy-change (2. order) : 0.2087286E+01  (-0.1057673E+01)
 number of electron      41.9999976 magnetization 
 augmentation part        1.0629443 magnetization 

 Broyden mixing:
  rms(total) = 0.39595E+00    rms(broyden)= 0.39576E+00
  rms(prec ) = 0.43260E+00
  weight for this iteration     100.00

 eigenvalues of (default mixing * dielectric matrix)
  average eigenvalue GAMMA=   1.4170
  0.9682  1.8658

 Free energy of the ion-electron system (eV)
  ---------------------------------------------------
  alpha Z        PSCENC =         2.15216506
  Ewald energy   TEWEN  =      2589.89119885
  -Hartree energ DENC   =     -3684.16229029
  -exchange      EXHF   =         0.00000000
  -V(xc)+E(xc)   XCENC  =       139.32823342
  PAW double counting   =      2828.39950765    -2834.95002853
  entropy T*S    EENTRO =        -0.00000000
  eigenvalues    EBANDS =      -550.91178464
  atomic energy  EATOM  =      1406.67326350
  Solvation  Ediel_sol  =         0.00000000
  ---------------------------------------------------
  free energy    TOTEN  =      -103.57973498 eV

  energy without entropy =     -103.57973498  energy(sigma->0) =     -103.57973498


--------------------------------------------------------------------------------------------------------




--------------------------------------- Iteration      1(   8)  ---------------------------------------


    POTLOK:  cpu time      1.0821: real time      1.0821
    SETDIJ:  cpu time      0.0027: real time      0.0027
    EDDIAG:  cpu time      0.2235: real time      0.2235
  RMM-DIIS:  cpu time      1.3055: real time      1.3089
    ORTHCH:  cpu time      0.0147: real time      0.0187
       DOS:  cpu time      0.0003: real time      0.0003
    CHARGE:  cpu time      0.1841: real time      0.1841
    MIXING:  cpu time      0.0253: real time      0.0253
    --------------------------------------------
      LOOP:  cpu time      2.8381: real time      2.8457

 eigenvalue-minimisations  :    60
 total energy-change (2. order) : 0.1790005E+00  (-0.7480968E-01)
 number of electron      41.9999977 magnetization 
 augmentation part        1.0494361 magnetization 

 Broyden mixing:
  rms(total) = 0.24122E+00    rms(broyden)= 0.24119E+00
  rms(prec ) = 0.26515E+00
  weight for this iteration     100.00

 eigenvalues of (default mixing * dielectric matrix)
  average eigenvalue GAMMA=   1.7876
  2.7299  1.8355  0.7972

 Free energy of the ion-electron system (eV)
  ---------------------------------------------------
  alpha Z        PSCENC =         2.15216506
  Ewald energy   TEWEN  =      2589.89119885
  -Hartree energ DENC   =     -3694.78603145
  -exchange      EXHF   =         0.00000000
  -V(xc)+E(xc)   XCENC  =       140.05330846
  PAW double counting   =      3151.83662771    -3158.33460916
  entropy T*S    EENTRO =        -0.00000000
  eigenvalues    EBANDS =      -540.88665746
  atomic energy  EATOM  =      1406.67326350
  Solvation  Ediel_sol  =         0.00000000
  ---------------------------------------------------
  free energy    TOTEN  =      -103.40073450 eV

  energy without entropy =     -103.40073450  energy(sigma->0) =     -103.40073450


--------------------------------------------------------------------------------------------------------




--------------------------------------- Iteration      1(   9)  ---------------------------------------


    POTLOK:  cpu time      1.8702: real time      1.8708
    SETDIJ:  cpu time      0.0053: real time      0.0053
    EDDIAG:  cpu time      0.5785: real time      0.5785
  RMM-DIIS:  cpu time      3.1490: real time      3.1498
    ORTHCH:  cpu time      0.0214: real time      0.0388
       DOS:  cpu time      0.0002: real time      0.0002
    CHARGE:  cpu time      0.2505: real time      0.3959
    MIXING:  cpu time      0.0326: real time      0.0326
    --------------------------------------------
      LOOP:  cpu time      5.9076: real time      6.0719

 eigenvalue-minimisations  :    60
 total energy-change (2. order) : 0.1033620E+00  (-0.4866145E-01)
 number of electron      41.9999977 magnetization 
 augmentation part        1.0476020 magnetization 

 Broyden mixing:
  rms(total) = 0.70774E-01    rms(broyden)= 0.70760E-01
  rms(prec ) = 0.92991E-01
  weight for this iteration     100.00

 eigenvalues of (default mixing * dielectric matrix)
  average eigenvalue GAMMA=   1.4750
  2.2816  1.7310  0.8689  1.0183

 Free energy of the ion-electron system (eV)
  ---------------------------------------------------
  alpha Z        PSCENC =         2.15216506
  Ewald energy   TEWEN  =      2589.89119885
  -Hartree energ DENC   =     -3705.06081901
  -exchange      EXHF   =         0.00000000
  -V(xc)+E(xc)   XCENC  =       140.74005581
  PAW double counting   =      3585.54920586    -3591.85834708
  entropy T*S    EENTRO =        -0.00000000
  eigenvalues    EBANDS =      -531.38409548
  atomic energy  EATOM  =      1406.67326350
  Solvation  Ediel_sol  =         0.00000000
  ---------------------------------------------------
  free energy    TOTEN  =      -103.29737248 eV

  energy without entropy =     -103.29737248  energy(sigma->0) =     -103.29737248


--------------------------------------------------------------------------------------------------------




--------------------------------------- Iteration      1(  10)  ---------------------------------------


    POTLOK:  cpu time      1.1204: real time      1.1207
    SETDIJ:  cpu time      0.0033: real time      0.0033
    EDDIAG:  cpu time      0.2547: real time      0.2548
  RMM-DIIS:  cpu time      1.4764: real time      1.4765
    ORTHCH:  cpu time      0.0117: real time      0.0117
       DOS:  cpu time      0.0001: real time      0.0001
    CHARGE:  cpu time      0.1973: real time      0.1974
    MIXING:  cpu time      0.0356: real time      0.0356
    --------------------------------------------
      LOOP:  cpu time      3.0996: real time      3.1002

 eigenvalue-minimisations  :    63
 total energy-change (2. order) : 0.4825314E-02  (-0.8024485E-02)
 number of electron      41.9999977 magnetization 
 augmentation part        1.0454300 magnetization 

 Broyden mixing:
  rms(total) = 0.32656E-01    rms(broyden)= 0.32649E-01
  rms(prec ) = 0.56321E-01
  weight for this iteration     100.00

 eigenvalues of (default mixing * dielectric matrix)
  average eigenvalue GAMMA=   1.6041
  2.2827  2.2827  1.6280  0.9858  0.8414

 Free energy of the ion-electron system (eV)
  ---------------------------------------------------
  alpha Z        PSCENC =         2.15216506
  Ewald energy   TEWEN  =      2589.89119885
  -Hartree energ DENC   =     -3707.48750968
  -exchange      EXHF   =         0.00000000
  -V(xc)+E(xc)   XCENC  =       140.72025600
  PAW double counting   =      3527.80199799    -3534.14878993
  entropy T*S    EENTRO =        -0.00000000
  eigenvalues    EBANDS =      -528.89512895
  atomic energy  EATOM  =      1406.67326350
  Solvation  Ediel_sol  =         0.00000000
  ---------------------------------------------------
  free energy    TOTEN  =      -103.29254717 eV

  energy without entropy =     -103.29254717  energy(sigma->0) =     -103.29254717


--------------------------------------------------------------------------------------------------------




--------------------------------------- Iteration      1(  11)  ---------------------------------------


    POTLOK:  cpu time      1.2106: real time      1.2107
    SETDIJ:  cpu time      0.0039: real time      0.0039
    EDDIAG:  cpu time      0.2663: real time      0.2663
  RMM-DIIS:  cpu time      1.3330: real time      1.3331
    ORTHCH:  cpu time      0.0053: real time      0.0053
       DOS:  cpu time      0.0001: real time      0.0001
    CHARGE:  cpu time      0.1173: real time      0.1173
    MIXING:  cpu time      0.0260: real time      0.0260
    --------------------------------------------
      LOOP:  cpu time      2.9623: real time      2.9626

 eigenvalue-minimisations  :    60
 total energy-change (2. order) :-0.1063804E-01  (-0.1219981E-01)
 number of electron      41.9999976 magnetization 
 augmentation part        1.0435659 magnetization 

 Broyden mixing:
  rms(total) = 0.42588E-01    rms(broyden)= 0.42581E-01
  rms(prec ) = 0.54339E-01
  weight for this iteration     100.00

 eigenvalues of (default mixing * dielectric matrix)
  average eigenvalue GAMMA=   1.4993
  2.3892  2.3892  1.2848  1.2848  0.8240  0.8240

 Free energy of the ion-electron system (eV)
  ---------------------------------------------------
  alpha Z        PSCENC =         2.15216506
  Ewald energy   TEWEN  =      2589.89119885
  -Hartree energ DENC   =     -3715.96172187
  -exchange      EXHF   =         0.00000000
  -V(xc)+E(xc)   XCENC  =       140.77425150
  PAW double counting   =      3485.23538641    -3491.58514961
  entropy T*S    EENTRO =        -0.00000000
  eigenvalues    EBANDS =      -520.48257905
  atomic energy  EATOM  =      1406.67326350
  Solvation  Ediel_sol  =         0.00000000
  ---------------------------------------------------
  free energy    TOTEN  =      -103.30318521 eV

  energy without entropy =     -103.30318521  energy(sigma->0) =     -103.30318521


--------------------------------------------------------------------------------------------------------




--------------------------------------- Iteration      1(  12)  ---------------------------------------


    POTLOK:  cpu time      1.4487: real time      1.4489
    SETDIJ:  cpu time      0.0028: real time      0.0028
    EDDIAG:  cpu time      0.2165: real time      0.2165
  RMM-DIIS:  cpu time      1.1731: real time      1.1733
    ORTHCH:  cpu time      0.0079: real time      0.0079
       DOS:  cpu time      0.0002: real time      0.0002
    CHARGE:  cpu time      0.1656: real time      0.1657
    MIXING:  cpu time      0.0298: real time      0.0298
    --------------------------------------------
      LOOP:  cpu time      3.0447: real time      3.0451

 eigenvalue-minimisations  :    61
 total energy-change (2. order) : 0.5435676E-02  (-0.1143085E-02)
 number of electron      41.9999976 magnetization 
 augmentation part        1.0425577 magnetization 

 Broyden mixing:
  rms(total) = 0.25549E-01    rms(broyden)= 0.25548E-01
  rms(prec ) = 0.35961E-01
  weight for this iteration     100.00

 eigenvalues of (default mixing * dielectric matrix)
  average eigenvalue GAMMA=   1.5119
  2.4193  2.4193  1.4898  1.4898  0.8107  0.9770  0.9770

 Free energy of the ion-electron system (eV)
  ---------------------------------------------------
  alpha Z        PSCENC =         2.15216506
  Ewald energy   TEWEN  =      2589.89119885
  -Hartree energ DENC   =     -3716.48342581
  -exchange      EXHF   =         0.00000000
  -V(xc)+E(xc)   XCENC  =       140.80833296
  PAW double counting   =      3507.10690321    -3513.44124766
  entropy T*S    EENTRO =        -0.00000000
  eigenvalues    EBANDS =      -520.00493964
  atomic energy  EATOM  =      1406.67326350
  Solvation  Ediel_sol  =         0.00000000
  ---------------------------------------------------
  free energy    TOTEN  =      -103.29774954 eV

  energy without entropy =     -103.29774954  energy(sigma->0) =     -103.29774954


--------------------------------------------------------------------------------------------------------




--------------------------------------- Iteration      1(  13)  ---------------------------------------


    POTLOK:  cpu time      1.1402: real time      1.1404
    SETDIJ:  cpu time      0.0029: real time      0.0029
    EDDIAG:  cpu time      0.2099: real time      0.2099
  RMM-DIIS:  cpu time      1.2506: real time      1.2507
    ORTHCH:  cpu time      0.0075: real time      0.0075
       DOS:  cpu time      0.0002: real time      0.0002
    CHARGE:  cpu time      0.1536: real time      0.1536
    MIXING:  cpu time      0.0372: real time      0.0372
    --------------------------------------------
      LOOP:  cpu time      2.8021: real time      2.8024

 eigenvalue-minimisations  :    60
 total energy-change (2. order) :-0.6840959E-02  (-0.2627228E-02)
 number of electron      41.9999977 magnetization 
 augmentation part        1.0428486 magnetization 

 Broyden mixing:
  rms(total) = 0.12506E-01    rms(broyden)= 0.12502E-01
  rms(prec ) = 0.19029E-01
  weight for this iteration     100.00

 eigenvalues of (default mixing * dielectric matrix)
  average eigenvalue GAMMA=   1.6839
  3.8376  2.5384  1.8525  1.3065  1.3065  0.8037  0.9128  0.9128

 Free energy of the ion-electron system (eV)
  ---------------------------------------------------
  alpha Z        PSCENC =         2.15216506
  Ewald energy   TEWEN  =      2589.89119885
  -Hartree energ DENC   =     -3718.14061581
  -exchange      EXHF   =         0.00000000
  -V(xc)+E(xc)   XCENC  =       140.81341333
  PAW double counting   =      3496.40508651    -3502.72374626
  entropy T*S    EENTRO =        -0.00000000
  eigenvalues    EBANDS =      -518.37535568
  atomic energy  EATOM  =      1406.67326350
  Solvation  Ediel_sol  =         0.00000000
  ---------------------------------------------------
  free energy    TOTEN  =      -103.30459049 eV

  energy without entropy =     -103.30459049  energy(sigma->0) =     -103.30459049


--------------------------------------------------------------------------------------------------------




--------------------------------------- Iteration      1(  14)  ---------------------------------------


    POTLOK:  cpu time      0.9272: real time      0.9273
    SETDIJ:  cpu time      0.0042: real time      0.0042
    EDDIAG:  cpu time      0.1832: real time      0.1832
  RMM-DIIS:  cpu time      1.3695: real time      1.3697
    ORTHCH:  cpu time      0.0127: real time      0.0127
       DOS:  cpu time      0.0003: real time      0.0003
    CHARGE:  cpu time      0.2167: real time      0.2168
    MIXING:  cpu time      0.0580: real time      0.0581
    --------------------------------------------
      LOOP:  cpu time      2.7718: real time      2.7722

 eigenvalue-minimisations  :    60
 total energy-change (2. order) :-0.2541345E-02  (-0.4877827E-03)
 number of electron      41.9999977 magnetization 
 augmentation part        1.0422877 magnetization 

 Broyden mixing:
  rms(total) = 0.82111E-02    rms(broyden)= 0.82095E-02
  rms(prec ) = 0.12058E-01
  weight for this iteration     100.00

 eigenvalues of (default mixing * dielectric matrix)
  average eigenvalue GAMMA=   1.8121
  4.4338  2.4446  2.4446  1.6868  1.3103  1.3103  0.8061  0.9364  0.9364

 Free energy of the ion-electron system (eV)
  ---------------------------------------------------
  alpha Z        PSCENC =         2.15216506
  Ewald energy   TEWEN  =      2589.89119885
  -Hartree energ DENC   =     -3721.02044039
  -exchange      EXHF   =         0.00000000
  -V(xc)+E(xc)   XCENC  =       140.87052672
  PAW double counting   =      3497.89109823    -3504.21682459
  entropy T*S    EENTRO =        -0.00000000
  eigenvalues    EBANDS =      -515.54811922
  atomic energy  EATOM  =      1406.67326350
  Solvation  Ediel_sol  =         0.00000000
  ---------------------------------------------------
  free energy    TOTEN  =      -103.30713184 eV

  energy without entropy =     -103.30713184  energy(sigma->0) =     -103.30713184


--------------------------------------------------------------------------------------------------------




--------------------------------------- Iteration      1(  15)  ---------------------------------------


    POTLOK:  cpu time      1.7084: real time      1.9692
    SETDIJ:  cpu time      0.0049: real time      0.0049
    EDDIAG:  cpu time      0.3736: real time      0.3736
  RMM-DIIS:  cpu time      2.2673: real time      2.2676
    ORTHCH:  cpu time      0.0094: real time      0.0094
       DOS:  cpu time      0.0002: real time      0.0002
    CHARGE:  cpu time      0.2294: real time      0.2295
    MIXING:  cpu time      0.0742: real time      0.0742
    --------------------------------------------
      LOOP:  cpu time      4.6675: real time      4.9286

 eigenvalue-minimisations  :    61
 total energy-change (2. order) :-0.1094871E-01  (-0.4340586E-03)
 number of electron      41.9999977 magnetization 
 augmentation part        1.0414386 magnetization 

 Broyden mixing:
  rms(total) = 0.38150E-02    rms(broyden)= 0.38134E-02
  rms(prec ) = 0.58583E-02
  weight for this iteration     100.00

 eigenvalues of (default mixing * dielectric matrix)
  average eigenvalue GAMMA=   1.9064
  5.9321  2.7387  2.1024  2.1024  1.3113  1.3113  0.9231  0.9231  0.8213  0.8986

 Free energy of the ion-electron system (eV)
  ---------------------------------------------------
  alpha Z        PSCENC =         2.15216506
  Ewald energy   TEWEN  =      2589.89119885
  -Hartree energ DENC   =     -3722.71307593
  -exchange      EXHF   =         0.00000000
  -V(xc)+E(xc)   XCENC  =       140.89070279
  PAW double counting   =      3500.24695180    -3506.58005167
  entropy T*S    EENTRO =        -0.00000000
  eigenvalues    EBANDS =      -513.87923496
  atomic energy  EATOM  =      1406.67326350
  Solvation  Ediel_sol  =         0.00000000
  ---------------------------------------------------
  free energy    TOTEN  =      -103.31808055 eV

  energy without entropy =     -103.31808055  energy(sigma->0) =     -103.31808055


--------------------------------------------------------------------------------------------------------




--------------------------------------- Iteration      1(  16)  ---------------------------------------


    POTLOK:  cpu time      1.5362: real time      1.5364
    SETDIJ:  cpu time      0.0236: real time      0.0236
    EDDIAG:  cpu time      0.3991: real time      0.3991
  RMM-DIIS:  cpu time      2.6693: real time      2.6695
    ORTHCH:  cpu time      0.0310: real time      0.0310
       DOS:  cpu time      0.0004: real time      0.0004
    CHARGE:  cpu time      0.4381: real time      0.4381
    MIXING:  cpu time      0.1670: real time      0.1670
    --------------------------------------------
      LOOP:  cpu time      5.2646: real time      5.2651

 eigenvalue-minimisations  :    66
 total energy-change (2. order) :-0.3191120E-02  (-0.1196592E-03)
 number of electron      41.9999977 magnetization 
 augmentation part        1.0411514 magnetization 

 Broyden mixing:
  rms(total) = 0.35741E-02    rms(broyden)= 0.35733E-02
  rms(prec ) = 0.49803E-02
  weight for this iteration     100.00

 eigenvalues of (default mixing * dielectric matrix)
  average eigenvalue GAMMA=   1.9794
  6.5370  2.9923  2.1292  2.1292  1.6715  1.3159  1.3159  0.9849  0.9849  0.8035
  0.9093

 Free energy of the ion-electron system (eV)
  ---------------------------------------------------
  alpha Z        PSCENC =         2.15216506
  Ewald energy   TEWEN  =      2589.89119885
  -Hartree energ DENC   =     -3722.59010903
  -exchange      EXHF   =         0.00000000
  -V(xc)+E(xc)   XCENC  =       140.87314889
  PAW double counting   =      3497.74498329    -3504.07629967
  entropy T*S    EENTRO =        -0.00000000
  eigenvalues    EBANDS =      -513.98962256
  atomic energy  EATOM  =      1406.67326350
  Solvation  Ediel_sol  =         0.00000000
  ---------------------------------------------------
  free energy    TOTEN  =      -103.32127167 eV

  energy without entropy =     -103.32127167  energy(sigma->0) =     -103.32127167


--------------------------------------------------------------------------------------------------------




--------------------------------------- Iteration      1(  17)  ---------------------------------------


    POTLOK:  cpu time      2.0589: real time      2.0592
    SETDIJ:  cpu time      0.0138: real time      0.0138
    EDDIAG:  cpu time      0.4816: real time      0.4817
  RMM-DIIS:  cpu time      2.1571: real time      2.1572
    ORTHCH:  cpu time      0.0114: real time      0.0114
       DOS:  cpu time      0.0002: real time      0.0002
    CHARGE:  cpu time      0.2598: real time      0.2598
    MIXING:  cpu time      0.1179: real time      0.1179
    --------------------------------------------
      LOOP:  cpu time      5.1007: real time      5.1012

 eigenvalue-minimisations  :    60
 total energy-change (2. order) :-0.3683316E-02  (-0.8385880E-04)
 number of electron      41.9999977 magnetization 
 augmentation part        1.0413850 magnetization 

 Broyden mixing:
  rms(total) = 0.16393E-02    rms(broyden)= 0.16386E-02
  rms(prec ) = 0.22810E-02
  weight for this iteration     100.00

 eigenvalues of (default mixing * dielectric matrix)
  average eigenvalue GAMMA=   2.0427
  7.4239  3.6119  2.4093  1.8731  1.8731  1.3273  1.3273  1.0535  1.0535  0.8797
  0.8797  0.8003

 Free energy of the ion-electron system (eV)
  ---------------------------------------------------
  alpha Z        PSCENC =         2.15216506
  Ewald energy   TEWEN  =      2589.89119885
  -Hartree energ DENC   =     -3722.08109208
  -exchange      EXHF   =         0.00000000
  -V(xc)+E(xc)   XCENC  =       140.84557570
  PAW double counting   =      3497.73040462    -3504.05765669
  entropy T*S    EENTRO =        -0.00000000
  eigenvalues    EBANDS =      -514.47881394
  atomic energy  EATOM  =      1406.67326350
  Solvation  Ediel_sol  =         0.00000000
  ---------------------------------------------------
  free energy    TOTEN  =      -103.32495498 eV

  energy without entropy =     -103.32495498  energy(sigma->0) =     -103.32495498


--------------------------------------------------------------------------------------------------------




--------------------------------------- Iteration      1(  18)  ---------------------------------------


    POTLOK:  cpu time      1.7340: real time      1.7342
    SETDIJ:  cpu time      0.0205: real time      0.0205
    EDDIAG:  cpu time      0.3707: real time      0.3707
  RMM-DIIS:  cpu time      1.4937: real time      1.4939
    ORTHCH:  cpu time      0.0292: real time      0.0292
       DOS:  cpu time      0.0003: real time      0.0003
    CHARGE:  cpu time      0.4169: real time      0.4169
    MIXING:  cpu time      0.1553: real time      0.1553
    --------------------------------------------
      LOOP:  cpu time      4.2205: real time      4.2209

 eigenvalue-minimisations  :    59
 total energy-change (2. order) :-0.6905091E-03  (-0.2049257E-04)
 number of electron      41.9999977 magnetization 
 augmentation part        1.0413572 magnetization 

 Broyden mixing:
  rms(total) = 0.16530E-02    rms(broyden)= 0.16527E-02
  rms(prec ) = 0.20587E-02
  weight for this iteration     100.00

 eigenvalues of (default mixing * dielectric matrix)
  average eigenvalue GAMMA=   2.1069
  7.8411  3.6990  2.1809  2.1809  2.0801  2.0801  1.3408  1.3408  1.0166  1.0166
  0.8007  0.9064  0.9064

 Free energy of the ion-electron system (eV)
  ---------------------------------------------------
  alpha Z        PSCENC =         2.15216506
  Ewald energy   TEWEN  =      2589.89119885
  -Hartree energ DENC   =     -3722.15410604
  -exchange      EXHF   =         0.00000000
  -V(xc)+E(xc)   XCENC  =       140.84671301
  PAW double counting   =      3498.44063446    -3504.76817504
  entropy T*S    EENTRO =        -0.00000000
  eigenvalues    EBANDS =      -514.40733930
  atomic energy  EATOM  =      1406.67326350
  Solvation  Ediel_sol  =         0.00000000
  ---------------------------------------------------
  free energy    TOTEN  =      -103.32564549 eV

  energy without entropy =     -103.32564549  energy(sigma->0) =     -103.32564549


--------------------------------------------------------------------------------------------------------




--------------------------------------- Iteration      1(  19)  ---------------------------------------


    POTLOK:  cpu time      1.6433: real time      1.6436
    SETDIJ:  cpu time      0.0033: real time      0.0033
    EDDIAG:  cpu time      0.1942: real time      0.1942
  RMM-DIIS:  cpu time      1.2705: real time      1.2706
    ORTHCH:  cpu time      0.0108: real time      0.0108
       DOS:  cpu time      0.0002: real time      0.0002
    CHARGE:  cpu time      0.1777: real time      0.1777
    MIXING:  cpu time      0.0777: real time      0.0777
    --------------------------------------------
      LOOP:  cpu time      3.3776: real time      3.3781

 eigenvalue-minimisations  :    60
 total energy-change (2. order) :-0.7938851E-03  (-0.2148332E-04)
 number of electron      41.9999977 magnetization 
 augmentation part        1.0411939 magnetization 

 Broyden mixing:
  rms(total) = 0.19463E-02    rms(broyden)= 0.19460E-02
  rms(prec ) = 0.22289E-02
  weight for this iteration     100.00

 eigenvalues of (default mixing * dielectric matrix)
  average eigenvalue GAMMA=   2.1563
  8.4242  4.8824  2.6029  2.3759  1.8766  1.3243  1.3243  1.4099  1.4099  0.8028
  1.0148  0.9209  0.9209  0.8982

 Free energy of the ion-electron system (eV)
  ---------------------------------------------------
  alpha Z        PSCENC =         2.15216506
  Ewald energy   TEWEN  =      2589.89119885
  -Hartree energ DENC   =     -3722.24813618
  -exchange      EXHF   =         0.00000000
  -V(xc)+E(xc)   XCENC  =       140.84782615
  PAW double counting   =      3496.51793793    -3502.84740466
  entropy T*S    EENTRO =        -0.00000000
  eigenvalues    EBANDS =      -514.31329002
  atomic energy  EATOM  =      1406.67326350
  Solvation  Ediel_sol  =         0.00000000
  ---------------------------------------------------
  free energy    TOTEN  =      -103.32643938 eV

  energy without entropy =     -103.32643938  energy(sigma->0) =     -103.32643938


--------------------------------------------------------------------------------------------------------




--------------------------------------- Iteration      1(  20)  ---------------------------------------


    POTLOK:  cpu time      0.9426: real time      0.9426
    SETDIJ:  cpu time      0.0029: real time      0.0029
    EDDIAG:  cpu time      0.2044: real time      0.2044
  RMM-DIIS:  cpu time      1.2837: real time      1.2838
    ORTHCH:  cpu time      0.0101: real time      0.0101
       DOS:  cpu time      0.0001: real time      0.0001
    CHARGE:  cpu time      0.2997: real time      0.2997
    MIXING:  cpu time      0.1459: real time      0.1462
    --------------------------------------------
      LOOP:  cpu time      2.8894: real time      2.8899

 eigenvalue-minimisations  :    50
 total energy-change (2. order) :-0.1225904E-03  (-0.4745170E-05)
 number of electron      41.9999977 magnetization 
 augmentation part        1.0412466 magnetization 

 Broyden mixing:
  rms(total) = 0.69720E-03    rms(broyden)= 0.69714E-03
  rms(prec ) = 0.85069E-03
  weight for this iteration     100.00

 eigenvalues of (default mixing * dielectric matrix)
  average eigenvalue GAMMA=   2.1866
  8.3895  5.3098  2.6240  2.2823  2.2823  1.6974  1.6974  1.3367  1.3367  1.1685
  0.8024  1.0119  1.0119  0.9243  0.9243

 Free energy of the ion-electron system (eV)
  ---------------------------------------------------
  alpha Z        PSCENC =         2.15216506
  Ewald energy   TEWEN  =      2589.89119885
  -Hartree energ DENC   =     -3722.17774850
  -exchange      EXHF   =         0.00000000
  -V(xc)+E(xc)   XCENC  =       140.84539494
  PAW double counting   =      3497.42972709    -3503.75795731
  entropy T*S    EENTRO =        -0.00000000
  eigenvalues    EBANDS =      -514.38260560
  atomic energy  EATOM  =      1406.67326350
  Solvation  Ediel_sol  =         0.00000000
  ---------------------------------------------------
  free energy    TOTEN  =      -103.32656197 eV

  energy without entropy =     -103.32656197  energy(sigma->0) =     -103.32656197


--------------------------------------------------------------------------------------------------------




--------------------------------------- Iteration      1(  21)  ---------------------------------------


    POTLOK:  cpu time      2.1790: real time      2.1830
    SETDIJ:  cpu time      0.0058: real time      0.0058
    EDDIAG:  cpu time      0.6230: real time      0.6246
  RMM-DIIS:  cpu time      2.6569: real time      2.6580
    ORTHCH:  cpu time      0.0258: real time      0.0259
       DOS:  cpu time      0.0002: real time      0.0001
    CHARGE:  cpu time      0.4113: real time      0.4113
    MIXING:  cpu time      0.1853: real time      0.1853
    --------------------------------------------
      LOOP:  cpu time      6.0871: real time      6.0940

 eigenvalue-minimisations  :    48
 total energy-change (2. order) :-0.1357214E-03  (-0.3365465E-05)
 number of electron      41.9999977 magnetization 
 augmentation part        1.0412749 magnetization 

 Broyden mixing:
  rms(total) = 0.46410E-03    rms(broyden)= 0.46391E-03
  rms(prec ) = 0.56133E-03
  weight for this iteration     100.00

 eigenvalues of (default mixing * dielectric matrix)
  average eigenvalue GAMMA=   2.1860
  8.8729  5.4207  3.1758  2.5330  2.0932  2.0932  1.3145  1.3145  1.3555  1.3555
  0.9784  0.9784  0.8031  0.8942  0.8966  0.8966

 Free energy of the ion-electron system (eV)
  ---------------------------------------------------
  alpha Z        PSCENC =         2.15216506
  Ewald energy   TEWEN  =      2589.89119885
  -Hartree energ DENC   =     -3722.16801126
  -exchange      EXHF   =         0.00000000
  -V(xc)+E(xc)   XCENC  =       140.84572649
  PAW double counting   =      3497.83270448    -3504.16088935
  entropy T*S    EENTRO =        -0.00000000
  eigenvalues    EBANDS =      -514.39285546
  atomic energy  EATOM  =      1406.67326350
  Solvation  Ediel_sol  =         0.00000000
  ---------------------------------------------------
  free energy    TOTEN  =      -103.32669769 eV

  energy without entropy =     -103.32669769  energy(sigma->0) =     -103.32669769


--------------------------------------------------------------------------------------------------------




--------------------------------------- Iteration      1(  22)  ---------------------------------------


    POTLOK:  cpu time      2.1926: real time      2.1928
    SETDIJ:  cpu time      0.0055: real time      0.0055
    EDDIAG:  cpu time      0.6179: real time      0.6179
  RMM-DIIS:  cpu time      2.2197: real time      2.2199
    ORTHCH:  cpu time      0.0218: real time      0.0218
       DOS:  cpu time      0.0002: real time      0.0002
    CHARGE:  cpu time      0.3737: real time      0.3737
    MIXING:  cpu time      0.1014: real time      0.1088
    --------------------------------------------
      LOOP:  cpu time      5.5329: real time      5.5406

 eigenvalue-minimisations  :    39
 total energy-change (2. order) :-0.3503109E-04  (-0.4133466E-06)
 number of electron      41.9999977 magnetization 
 augmentation part        1.0412733 magnetization 

 Broyden mixing:
  rms(total) = 0.20825E-03    rms(broyden)= 0.20821E-03
  rms(prec ) = 0.26694E-03
  weight for this iteration     100.00

 eigenvalues of (default mixing * dielectric matrix)
  average eigenvalue GAMMA=   2.1855
  8.9751  5.5919  3.2628  2.3059  2.3059  2.2438  1.5794  1.3017  1.3017  1.3386
  1.3386  1.0386  1.0386  0.8026  0.9177  0.9177  0.8934

 Free energy of the ion-electron system (eV)
  ---------------------------------------------------
  alpha Z        PSCENC =         2.15216506
  Ewald energy   TEWEN  =      2589.89119885
  -Hartree energ DENC   =     -3722.19205935
  -exchange      EXHF   =         0.00000000
  -V(xc)+E(xc)   XCENC  =       140.84618322
  PAW double counting   =      3497.63338789    -3503.96158795
  entropy T*S    EENTRO =        -0.00000000
  eigenvalues    EBANDS =      -514.36928394
  atomic energy  EATOM  =      1406.67326350
  Solvation  Ediel_sol  =         0.00000000
  ---------------------------------------------------
  free energy    TOTEN  =      -103.32673272 eV

  energy without entropy =     -103.32673272  energy(sigma->0) =     -103.32673272


--------------------------------------------------------------------------------------------------------




--------------------------------------- Iteration      1(  23)  ---------------------------------------


    POTLOK:  cpu time      2.0450: real time      2.0454
    SETDIJ:  cpu time      0.0060: real time      0.0060
    EDDIAG:  cpu time      0.5940: real time      0.5941
  RMM-DIIS:  cpu time      2.0900: real time      2.0901
    ORTHCH:  cpu time      0.0261: real time      0.0261
       DOS:  cpu time      0.0002: real time      0.0002
    CHARGE:  cpu time      0.4543: real time      0.4544
    MIXING:  cpu time      0.2023: real time      0.2024
    --------------------------------------------
      LOOP:  cpu time      5.4178: real time      5.4185

 eigenvalue-minimisations  :    38
 total energy-change (2. order) :-0.2642968E-04  (-0.2376141E-06)
 number of electron      41.9999977 magnetization 
 augmentation part        1.0412697 magnetization 

 Broyden mixing:
  rms(total) = 0.92133E-04    rms(broyden)= 0.92108E-04
  rms(prec ) = 0.12565E-03
  weight for this iteration     100.00

 eigenvalues of (default mixing * dielectric matrix)
  average eigenvalue GAMMA=   2.2516
  9.2189  6.0270  4.3607  2.6731  2.3381  2.0255  2.0255  1.2968  1.2968  1.3404
  1.3404  1.0299  1.0299  0.8025  0.9452  0.9452  0.9167  0.9167

 Free energy of the ion-electron system (eV)
  ---------------------------------------------------
  alpha Z        PSCENC =         2.15216506
  Ewald energy   TEWEN  =      2589.89119885
  -Hartree energ DENC   =     -3722.19704960
  -exchange      EXHF   =         0.00000000
  -V(xc)+E(xc)   XCENC  =       140.84631551
  PAW double counting   =      3497.69185176    -3504.02002920
  entropy T*S    EENTRO =        -0.00000000
  eigenvalues    EBANDS =      -514.36447503
  atomic energy  EATOM  =      1406.67326350
  Solvation  Ediel_sol  =         0.00000000
  ---------------------------------------------------
  free energy    TOTEN  =      -103.32675915 eV

  energy without entropy =     -103.32675915  energy(sigma->0) =     -103.32675915


--------------------------------------------------------------------------------------------------------




--------------------------------------- Iteration      1(  24)  ---------------------------------------


    POTLOK:  cpu time      2.0829: real time      2.0831
    SETDIJ:  cpu time      0.0055: real time      0.0055
    EDDIAG:  cpu time      0.6489: real time      0.6491
  RMM-DIIS:  cpu time      1.4825: real time      1.4828
    ORTHCH:  cpu time      0.0248: real time      0.0249
       DOS:  cpu time      0.0003: real time      0.0003
    CHARGE:  cpu time      0.4292: real time      0.4336
    MIXING:  cpu time      0.2393: real time      0.2394
    --------------------------------------------
      LOOP:  cpu time      4.9135: real time      4.9187

 eigenvalue-minimisations  :    22
 total energy-change (2. order) :-0.1205934E-04  (-0.3365981E-07)
 number of electron      41.9999977 magnetization 
 augmentation part        1.0412696 magnetization 

 Broyden mixing:
  rms(total) = 0.46477E-04    rms(broyden)= 0.46471E-04
  rms(prec ) = 0.67777E-04
  weight for this iteration     100.00

 eigenvalues of (default mixing * dielectric matrix)
  average eigenvalue GAMMA=   2.2530
  9.2189  6.3472  4.3294  2.6346  2.3413  2.2118  2.2118  1.3198  1.3198  1.3702
  1.3702  1.5562  1.0353  1.0353  0.8025  0.9201  0.9201  0.9675  0.8961

 Free energy of the ion-electron system (eV)
  ---------------------------------------------------
  alpha Z        PSCENC =         2.15216506
  Ewald energy   TEWEN  =      2589.89119885
  -Hartree energ DENC   =     -3722.19150916
[...]
 d Force =-0.8823701E-01[-0.881E-01,-0.883E-01]  d Ewald  =-0.8823701E-01 0.396E-09


--------------------------------------------------------------------------------------------------------


    POTLOK:  cpu time      0.9303: real time      0.9469


--------------------------------------------------------------------------------------------------------


 NEB: the previous image is higher in energy: T
 NEB: the next image is higher in energy    : F
 NEB: only prev energy greater

 NEB: Tangent
 ----------------------------------------------
     -0.03870      0.00231     -0.04266
     -0.02255      0.00278     -0.02413
      0.03301     -0.01641      0.12904
      0.00553     -0.00568      0.12479
      0.19815     -0.00031      0.21914
      0.13689     -0.00763      0.17608
      0.12550      0.04594      0.24321
     -0.07778      0.00902     -0.16812
     -0.11267     -0.01688      0.22652
      0.02009     -0.00370      0.10258
     -0.04702      0.01476     -0.13554
     -0.04489     -0.06084      0.19767
      0.07489     -0.00819      0.13560
      0.37546     -0.03479      0.13336
      0.22486      0.04271      0.41277
      0.16985     -0.05139      0.13243
      0.11210      0.10367      0.30576

 NEB: forces: par spring, perp REAL, dneb     0.001410    0.038551    0.000000
 NEB: distance to prev, next image, angle between     1.314092    1.313810  132.991164
 NEB: projections on to tangent (spring, REAL)    -0.001410   -0.001562

 stress matrix after NEB project (eV)
     -1.91783      0.01643     -0.00297
      0.01643     -1.85565      0.00125
     -0.00297      0.00125     -1.98194
  FORCES: max atom, RMS     0.014703    0.009356
  FORCE total and by dimension    0.038577    0.014272
  Stress total and by dimension    3.324178    1.981944
 Quasi-Newton relaxation of ions (Broydens 2nd method)
  g(Force)  = 0.418E-03   g(Stress)= 0.000E+00

 retain information from N=  1 steps
 eigenvalues of (default step * inverse Hessian matrix)
  average eigenvalue of G=   1.6672
 eigenvalue spectrum of G is  1.6672


--------------------------------------------------------------------------------------------------------


    WAVPRE:  cpu time      1.1435: real time      1.7718
    FEWALD:  cpu time      0.0005: real time      0.0005
    ORTHCH:  cpu time      0.0810: real time      0.1610
     LOOP+:  cpu time     17.8471: real time     21.7059


--------------------------------------- Iteration    108(   1)  ---------------------------------------


    POTLOK:  cpu time      1.0923: real time      1.4658
    SETDIJ:  cpu time      0.0038: real time      0.0188
     EDDAV:  cpu time      1.8512: real time      2.9648
       DOS:  cpu time      0.0002: real time      0.0003
    CHARGE:  cpu time      0.1771: real time      0.3051
    MIXING:  cpu time      0.0335: real time      0.0655
    --------------------------------------------
      LOOP:  cpu time      3.1582: real time      4.8203

 eigenvalue-minimisations  :    60
 total energy-change (2. order) :-0.4128789E-04  (-0.7375756E-04)
 number of electron      42.0000004 magnetization 
 augmentation part        1.0307513 magnetization 

 Broyden mixing:
  rms(total) = 0.50240E-03    rms(broyden)= 0.50025E-03
  rms(prec ) = 0.53362E-03
  weight for this iteration     100.00

 Free energy of the ion-electron system (eV)
  ---------------------------------------------------
  alpha Z        PSCENC =         2.15216506
  Ewald energy   TEWEN  =      2561.50708475
  -Hartree energ DENC   =     -3695.37656923
  -exchange      EXHF   =         0.00000000
  -V(xc)+E(xc)   XCENC  =       140.44890956
  PAW double counting   =      3431.91067126    -3438.20668752
  entropy T*S    EENTRO =        -0.00000000
  eigenvalues    EBANDS =      -512.47713604
  atomic energy  EATOM  =      1406.67326350
  Solvation  Ediel_sol  =         0.00000000
  ---------------------------------------------------
  free energy    TOTEN  =      -103.36829866 eV

  energy without entropy =     -103.36829866  energy(sigma->0) =     -103.36829866


--------------------------------------------------------------------------------------------------------




--------------------------------------- Iteration    108(   2)  ---------------------------------------


    POTLOK:  cpu time      1.9192: real time      2.6487
    SETDIJ:  cpu time      0.0407: real time      0.0441
    EDDIAG:  cpu time      0.1506: real time      0.1575
  RMM-DIIS:  cpu time      0.5182: real time      0.5388
    ORTHCH:  cpu time      0.0040: real time      0.0047
       DOS:  cpu time      0.0001: real time      0.0001
    --------------------------------------------
      LOOP:  cpu time      2.6327: real time      3.3937

 eigenvalue-minimisations  :    39
 total energy-change (2. order) :-0.7367039E-06  (-0.8104484E-06)
 number of electron      42.0000004 magnetization 
 augmentation part        1.0307513 magnetization 

 Free energy of the ion-electron system (eV)
  ---------------------------------------------------
  alpha Z        PSCENC =         2.15216506
  Ewald energy   TEWEN  =      2561.50708475
  -Hartree energ DENC   =     -3695.37790116
  -exchange      EXHF   =         0.00000000
  -V(xc)+E(xc)   XCENC  =       140.44902412
  PAW double counting   =      3431.94989168    -3438.24594415
  entropy T*S    EENTRO =        -0.00000000
  eigenvalues    EBANDS =      -512.47588320
  atomic energy  EATOM  =      1406.67326350
  Solvation  Ediel_sol  =         0.00000000
  ---------------------------------------------------
  free energy    TOTEN  =      -103.36829939 eV

  energy without entropy =     -103.36829939  energy(sigma->0) =     -103.36829939


--------------------------------------------------------------------------------------------------------




 average (electrostatic) potential at core
  the test charge radii are     0.6991  0.5201  0.7089
  (the norm of the test charge is              1.0000)
       1 -58.7503       2 -58.7507       3 -59.0569       4 -58.8460       5 -58.9822
       6 -59.8350       7 -59.6413       8 -42.0700       9 -41.9288      10 -41.9559
      11 -42.0903      12 -42.0694      13 -42.0794      14 -41.9619      15 -41.9610
      16 -42.4853      17 -72.8922
 
 
 
 E-fermi :  -5.9465     XC(G=0):  -0.6148     alpha+bet : -0.2838

 Fermi energy:        -5.9465073645

 k-point     1 :       0.0000    0.0000    0.0000
  band No.  band energies     occupation 
      1     -22.2541      2.00000
      2     -21.1827      2.00000
      3     -19.1014      2.00000
      4     -18.6391      2.00000
      5     -15.9586      2.00000
      6     -15.3916      2.00000
      7     -12.9929      2.00000
      8     -12.7231      2.00000
      9     -12.4539      2.00000
     10     -10.7807      2.00000
     11     -10.5654      2.00000
     12     -10.2493      2.00000
     13      -9.8139      2.00000
     14      -9.5663      2.00000
     15      -8.7449      2.00000
     16      -8.5399      2.00000
     17      -8.2537      2.00000
     18      -7.7556      2.00000
     19      -7.5549      2.00000
     20      -7.5162      2.00000
     21      -6.1997      2.00000
     22      -1.0615      0.00000
     23      -0.6876      0.00000
     24      -0.2089      0.00000
     25      -0.1826      0.00000
     26      -0.0139      0.00000
     27       0.1228      0.00000
     28       0.1948      0.00000
     29       0.3818      0.00000
     30       0.4967      0.00000


--------------------------------------------------------------------------------------------------------


 soft charge-density along one line, spin component           1
         0         1         2         3         4         5         6         7         8         9
 total charge-density along one line
 
 pseudopotential strength for first ion, spin component:           1
 10.251  13.633  -0.000  -0.000   0.001  -0.001   0.001  -0.002
 13.633  18.130  -0.000  -0.000   0.001  -0.002   0.001  -0.003
 -0.000  -0.000  -4.381   0.000  -0.001   8.568  -0.000   0.001
 -0.000  -0.000   0.000  -4.373   0.001  -0.000   8.558  -0.001
  0.001   0.001  -0.001   0.001  -4.377   0.001  -0.001   8.563
 -0.001  -0.002   8.568  -0.000   0.001 -18.897   0.001  -0.002
  0.001   0.001  -0.000   8.558  -0.001   0.001 -18.889   0.000
 -0.002  -0.003   0.001  -0.001   8.563  -0.002   0.000 -18.891
 total augmentation occupancy for first ion, spin component:           1
  7.800  -3.380   0.402  -0.000   0.043   0.066  -0.001   0.015
 -3.380   1.511  -0.233   0.005  -0.045  -0.037   0.001  -0.012
  0.402  -0.233   1.901   0.017   0.012   0.177   0.003  -0.000
 -0.000   0.005   0.017   1.188  -0.095   0.003   0.073  -0.015
  0.043  -0.045   0.012  -0.095   1.656  -0.000  -0.015   0.147
  0.066  -0.037   0.177   0.003  -0.000   0.018   0.000  -0.000
 -0.001   0.001   0.003   0.073  -0.015   0.000   0.005  -0.002
  0.015  -0.012  -0.000  -0.015   0.147  -0.000  -0.002   0.014


------------------------ aborting loop because EDIFF is reached ----------------------------------------


    CHARGE:  cpu time      0.2276: real time      0.2492
    FORLOC:  cpu time      0.1715: real time      0.1954
    FORNL :  cpu time      0.1229: real time      0.3254
    STRESS:  cpu time      1.0471: real time      1.0912
    FORCOR:  cpu time      1.3432: real time      1.3699
    FORHAR:  cpu time      0.4307: real time      0.6102
    MIXING:  cpu time      0.0283: real time      0.0297
    OFIELD:  cpu time      0.0001: real time      0.0001

 ---------------------------------------------------------------------------------------------

         DFTD3 V3.0 Rev 1        
 Edisp (eV)   -0.19904

 E6    (eV) :    -0.0828
 E8    (eV) :    -0.1163
 % E8        : 58.41
    FORVDW:  cpu time      0.0077: real time      0.0078

  FORCE on cell =-STRESS in cart. coord.  units (eV):
  Direction    XX          YY          ZZ          XY          YZ          ZX
  --------------------------------------------------------------------------------------
  Alpha Z     2.15217     2.15217     2.15217
  Ewald    1230.54566  1131.59237   199.36790   380.05086  -140.51708  -626.49551
  Hartree  1471.13078  1427.62588   796.62398   265.89514  -112.16846  -478.22291
  E(xc)    -152.45713  -153.00173  -154.44142     0.54588    -0.09862    -0.48070
  Local   -3091.39672 -2964.20086 -1425.94427  -633.87665   251.25625  1102.13188
  n-local   -63.15676   -60.79335   -59.24528    -1.48839     0.17699    -0.46277
  augment    -0.63020    -0.64433    -0.56334     0.00713    -0.01014    -0.03787
  Kinetic   601.91425   615.42878   640.06432   -11.09727     1.35495     3.54433
  Fock        0.00000     0.00000     0.00000     0.00000     0.00000     0.00000
  vdW        -0.01578    -0.01761     0.00139    -0.01814     0.00679     0.02180
  -------------------------------------------------------------------------------------
  Total      -1.91373    -1.85868    -1.98455     0.01857     0.00068    -0.00174
  in kB      -0.83915    -0.81501    -0.87020     0.00814     0.00030    -0.00076
  external pressure =       -0.84 kB  Pullay stress =        0.00 kB


 VOLUME and BASIS-vectors are now :
 -----------------------------------------------------------------------------
  energy-cutoff  :      400.00
  volume of cell :     3653.87
      direct lattice vectors                 reciprocal lattice vectors
    15.402250290  0.000000000  0.000000000     0.064925578  0.000000000  0.000000000
     0.000000000 15.402250290  0.000000000     0.000000000  0.064925578  0.000000000
     0.000000000  0.000000000 15.402250290     0.000000000  0.000000000  0.064925578

  length of vectors
    15.402250290 15.402250290 15.402250290     0.064925578  0.064925578  0.064925578


 FORCES acting on ions
    electron-ion (+dipol)            ewald-force                    non-local-force                 convergence-correction
 -----------------------------------------------------------------------------------------------
   0.155E+03 0.123E+03 -.598E+02   -.156E+03 -.124E+03 0.601E+02   0.827E+00 0.441E+00 -.221E+00   0.584E-04 0.719E-04 -.174E-02
   0.167E+03 -.949E+02 -.730E+02   -.168E+03 0.950E+02 0.735E+02   0.115E+01 -.904E-01 -.468E+00   -.784E-04 -.229E-03 -.128E-02
   0.956E+01 -.151E+03 -.888E+02   -.992E+01 0.152E+03 0.898E+02   0.360E+00 -.995E+00 -.101E+01   0.671E-03 -.131E-02 0.122E-02
   -.226E+02 0.172E+03 -.636E+02   0.227E+02 -.173E+03 0.637E+02   -.815E-01 0.698E+00 -.108E+00   0.887E-03 0.144E-02 0.599E-03
   -.741E+02 0.119E+03 0.974E+02   0.745E+02 -.120E+03 -.975E+02   -.371E+00 0.124E+01 0.886E-01   -.525E-03 0.341E-03 0.228E-03
   0.528E+01 -.484E+02 0.960E+02   -.932E+01 0.459E+02 -.951E+02   0.405E+01 0.243E+01 -.965E+00   0.856E-04 -.584E-03 0.441E-04
   -.167E+02 -.308E+02 0.419E+02   0.140E+02 0.294E+02 -.414E+02   0.268E+01 0.145E+01 -.530E+00   -.341E-03 -.820E-03 -.211E-02
   0.687E+02 0.462E+02 -.158E+02   -.734E+02 -.494E+02 0.166E+02   0.469E+01 0.314E+01 -.815E+00   -.117E-03 -.429E-04 -.459E-03
   -.425E+02 0.234E+02 -.690E+02   0.456E+02 -.229E+02 0.734E+02   -.305E+01 -.464E+00 -.442E+01   0.117E-04 0.383E-03 -.564E-04
   0.462E+01 0.855E+02 0.226E+01   -.513E+01 -.910E+02 -.310E+01   0.501E+00 0.547E+01 0.832E+00   0.228E-03 -.281E-04 0.230E-03
   0.726E+02 -.389E+02 -.191E+02   -.775E+02 0.416E+02 0.201E+02   0.489E+01 -.278E+01 -.979E+00   -.150E-03 0.545E-05 -.334E-03
   -.411E+02 -.175E+02 -.724E+02   0.446E+02 0.170E+02 0.765E+02   -.343E+01 0.541E+00 -.419E+01   -.480E-04 -.374E-03 0.817E-04
   0.168E+02 -.846E+02 -.660E+01   -.177E+02 0.902E+02 0.609E+01   0.872E+00 -.552E+01 0.502E+00   0.126E-03 0.964E-04 0.359E-03
   0.145E+02 0.437E+02 0.742E+02   -.164E+02 -.458E+02 -.790E+02   0.192E+01 0.215E+01 0.477E+01   -.112E-03 0.990E-04 0.447E-04
   -.748E+02 0.391E+02 0.811E+01   0.803E+02 -.405E+02 -.791E+01   -.543E+01 0.137E+01 -.197E+00   -.210E-04 0.341E-04 -.757E-04
   0.442E+02 -.256E+02 0.738E+02   -.476E+02 0.269E+02 -.780E+02   0.341E+01 -.127E+01 0.424E+01   -.670E-04 -.330E-04 0.670E-07
   -.264E+03 -.150E+03 0.711E+02   0.299E+03 0.168E+03 -.778E+02   -.352E+02 -.183E+02 0.670E+01   0.130E-02 -.839E-03 -.498E-02
 -----------------------------------------------------------------------------------------------
   0.222E+02 0.105E+02 -.323E+01   0.000E+00 -.114E-12 0.000E+00   -.222E+02 -.105E+02 0.324E+01   0.191E-02 -.179E-02 -.822E-02
 
 
 POSITION                                       TOTAL-FORCE (eV/Angst)
 -----------------------------------------------------------------------------------
      5.15988      6.77399      8.70746         0.001117      0.000222      0.003732
      5.11266      8.11304      8.74898         0.001197      0.000772      0.002362
      6.38098      8.87793      8.49692        -0.001627      0.002558     -0.004689
      6.48582      6.11664      8.44737        -0.001963     -0.002866     -0.003015
      7.22758      6.76489      7.25562         0.001288     -0.000499      0.000243
      7.05861      8.31766      7.21105         0.001621     -0.000281     -0.001524
      8.33028      8.98641      6.95314        -0.004977     -0.002865      0.003396
      4.26694      6.16434      8.86289         0.002057      0.001673      0.013206
      7.11670      6.22370      9.34990        -0.000952     -0.013484     -0.002632
      6.38262      5.03626      8.27467        -0.008452     -0.001449     -0.010310
      4.18225      8.65370      8.93506         0.002403     -0.000517      0.010238
      7.08358      8.75459      9.34158        -0.001050      0.012350     -0.003961
      6.20517      9.95626      8.38667        -0.006864      0.001500     -0.011867
      6.83993      6.34832      6.31516         0.005374     -0.000380     -0.001339
      8.29422      6.50375      7.30297         0.001457      0.000010      0.003787
      6.39183      8.57376      6.37094         0.003667     -0.002036     -0.003806
      9.35225      9.51802      6.75943         0.005705      0.005293      0.006179
 -----------------------------------------------------------------------------------
    total drift:                               -0.004016     -0.003428     -0.001170


--------------------------------------------------------------------------------------------------------



  FREE ENERGIE OF THE ION-ELECTRON SYSTEM (eV)
  ---------------------------------------------------
  free  energy   TOTEN  =      -103.56734225 eV

  energy  without entropy=     -103.56734225  energy(sigma->0) =     -103.56734225
 
 d Force = 0.3429882E-04[ 0.326E-04, 0.360E-04]  d Energy = 0.3497694E-04-0.678E-06
 d Force = 0.2503425E-01[ 0.251E-01, 0.250E-01]  d Ewald  = 0.2503425E-01 0.337E-09


--------------------------------------------------------------------------------------------------------


    POTLOK:  cpu time      1.4465: real time      1.9811


--------------------------------------------------------------------------------------------------------


 NEB: the previous image is higher in energy: T
 NEB: the next image is higher in energy    : F
 NEB: only prev energy greater

 NEB: Tangent
 ----------------------------------------------
     -0.03870      0.00226     -0.04261
     -0.02261      0.00272     -0.02411
      0.03289     -0.01628      0.12903
      0.00548     -0.00577      0.12472
      0.19826     -0.00020      0.21925
      0.13702     -0.00753      0.17623
      0.12566      0.04589      0.24323
     -0.07770      0.00895     -0.16778
     -0.11278     -0.01732      0.22656
      0.01992     -0.00372      0.10215
     -0.04706      0.01464     -0.13530
     -0.04517     -0.06040      0.19787
      0.07454     -0.00814      0.13530
      0.37568     -0.03455      0.13338
      0.22499      0.04288      0.41297
      0.17006     -0.05130      0.13251
      0.11229      0.10325      0.30524

 NEB: forces: par spring, perp REAL, dneb     0.001589    0.036297    0.000000
 NEB: distance to prev, next image, angle between     1.314126    1.313808  133.029816
 NEB: projections on to tangent (spring, REAL)    -0.001589   -0.002928

 stress matrix after NEB project (eV)
     -1.91373      0.01857     -0.00174
      0.01857     -1.85868      0.00068
     -0.00174      0.00068     -1.98455
  FORCES: max atom, RMS     0.013751    0.008812
  FORCE total and by dimension    0.036332    0.013508
  Stress total and by dimension    3.325089    1.984549
 Quasi-Newton relaxation of ions (Broydens 2nd method)
  g(Force)  = 0.386E-03   g(Stress)= 0.000E+00

 retain information from N=  2 steps
 eigenvalues of (default step * inverse Hessian matrix)
  average eigenvalue of G=   4.3533
 eigenvalue spectrum of G is  4.3533  4.3533


--------------------------------------------------------------------------------------------------------


  
 reached required accuracy - stopping structural energy minimisation
     LOOP+:  cpu time     13.4360: real time     18.2172
    4ORBIT:  cpu time      0.0000: real time      0.0000

 total amount of memory used by VASP MPI-rank0   277942. kBytes
=======================================================================

   base      :      30000. kBytes
   nonl-proj :      15437. kBytes
   fftplans  :      71598. kBytes
   grid      :     152883. kBytes
   one-center:         26. kBytes
   wavefun   :       7998. kBytes
 
  
  
 General timing and accounting informations for this job:
 ========================================================
  
                  Total CPU time used (sec):     2219.386
                            User time (sec):     2067.838
                          System time (sec):      151.548
                         Elapsed time (sec):     3151.802
  
                   Maximum memory used (kb):     1152108.
                   Average memory used (kb):          N/A
  
                          Minor page faults:     12981551
                          Major page faults:          244
                 Voluntary context switches:         1537
