<?xml version="1.0" encoding="ISO-8859-1"?>
<modeling>
 <generator>
  <i name="program" type="string">vasp </i>
  <i name="version" type="string">6.3.2  </i>
  <i name="subversion" type="string">27Jun22 (build Oct 05 2023 17:59:42) gamma-only                       parallel </i>
  <i name="platform" type="string">LinuxIFC </i>
  <i name="date" type="string">2024 04 05 </i>
  <i name="time" type="string">18:28:44 </i>
 </generator>
 <incar>
  <i type="string" name="PREC">NORMAL</i>
  <i type="string" name="ALGO">Fast</i>
  <i type="int" name="ISPIN">     1</i>
  <i type="int" name="IBRION">     1</i>
  <i name="EDIFF">      0.00001000</i>
  <i name="EDIFFG">     -0.05000000</i>
  <i type="int" name="NSW">  5000</i>
  <i name="ENCUT">    400.00000000</i>
  <i name="POTIM">      0.10000000</i>
  <i type="int" name="ISMEAR">     0</i>
  <i name="SIGMA">      0.05000000</i>
  <i type="logical" name="LWAVE"> F  </i>
  <i type="logical" name="LCHARG"> F  </i>
  <i type="string" name="GGA">PE</i>
  <i type="int" name="IVDW">    11</i>
  <i name="SPRING">     -5.00000000</i>
 </incar>
 <primitive_cell>
  <structure name="primitive_cell" >
   <crystal>
    <varray name="basis" >
     <v>      15.40225029       0.00000000       0.00000000 </v>
     <v>       0.00000000      15.40225029       0.00000000 </v>
     <v>       0.00000000       0.00000000      15.40225029 </v>
    </varray>
    <i name="volume">   3653.86527022 </i>
    <varray name="rec_basis" >
     <v>       0.06492558       0.00000000       0.00000000 </v>
     <v>       0.00000000       0.06492558       0.00000000 </v>
     <v>       0.00000000       0.00000000       0.06492558 </v>
    </varray>
   </crystal>
   <varray name="positions" >
    <v>       0.33454951       0.43963786       0.56400203 </v>
    <v>       0.33212456       0.52643492       0.56781525 </v>
    <v>       0.41474472       0.57540069       0.55497844 </v>
    <v>       0.42058382       0.39761510       0.55051049 </v>
    <v>       0.47192147       0.44018295       0.47543507 </v>
    <v>       0.46021670       0.53990610       0.47264481 </v>
    <v>       0.54202710       0.58311650       0.45547523 </v>
    <v>       0.27574686       0.40064791       0.56849954 </v>
    <v>       0.46127224       0.40774711       0.60803614 </v>
    <v>       0.41569096       0.32742770       0.54114545 </v>
    <v>       0.27148083       0.56174627       0.57639824 </v>
    <v>       0.46017111       0.56515758       0.60873298 </v>
    <v>       0.40426479       0.64542354       0.54927916 </v>
    <v>       0.45176349       0.41327843       0.41301675 </v>
    <v>       0.54042805       0.42389284       0.48286345 </v>
    <v>       0.41716090       0.55541125       0.41826784 </v>
    <v>       0.60814699       0.61699102       0.44093218 </v>
   </varray>
  </structure>
  <varray name="primitive_index" >
   <v type="int" >        1 </v>
   <v type="int" >        2 </v>
   <v type="int" >        3 </v>
   <v type="int" >        4 </v>
   <v type="int" >        5 </v>
   <v type="int" >        6 </v>
   <v type="int" >        7 </v>
   <v type="int" >        8 </v>
   <v type="int" >        9 </v>
   <v type="int" >       10 </v>
   <v type="int" >       11 </v>
   <v type="int" >       12 </v>
   <v type="int" >       13 </v>
   <v type="int" >       14 </v>
   <v type="int" >       15 </v>
   <v type="int" >       16 </v>
   <v type="int" >       17 </v>
  </varray>
 </primitive_cell>
 <kpoints>
  <generation param="Monkhorst-Pack">
   <v type="int" name="divisions">       1        1        1 </v>
   <v name="usershift">      0.00000000       0.00000000       0.00000000 </v>
   <v name="genvec1">      1.00000000       0.00000000       0.00000000 </v>
   <v name="genvec2">      0.00000000       1.00000000       0.00000000 </v>
   <v name="genvec3">      0.00000000       0.00000000       1.00000000 </v>
   <v name="shift">      0.00000000       0.00000000       0.00000000 </v>
  </generation>
  <varray name="kpointlist" >
   <v>       0.00000000       0.00000000       0.00000000 </v>
  </varray>
  <varray name="weights" >
   <v>       1.00000000 </v>
  </varray>
 </kpoints>
 <parameters>
  <separator name="general" >
   <i type="string" name="SYSTEM">unknown system</i>
   <i type="logical" name="LCOMPAT"> F  </i>
  </separator>
  <separator name="electronic" >
   <i type="string" name="PREC">normal</i>
   <i name="ENMAX">    400.00000000</i>
   <i name="ENAUG">    644.87300000</i>
   <i name="EDIFF">      0.00001000</i>
   <i type="int" name="IALGO">    68</i>
   <i type="int" name="IWAVPR">    11</i>
   <i type="int" name="NBANDS">    30</i>
   <i type="int" name="NBANDSLOW">    -1</i>
   <i type="int" name="NBANDSHIGH">    -1</i>
   <i name="NELECT">     42.00000000</i>
   <i type="int" name="TURBO">     0</i>
   <i type="int" name="IRESTART">     0</i>
   <i type="int" name="NREBOOT">     0</i>
   <i type="int" name="NMIN">     0</i>
   <i name="EREF">      0.00000000</i>
   <separator name="electronic smearing" >
    <i type="int" name="ISMEAR">     0</i>
    <i name="SIGMA">      0.05000000</i>
    <i name="KSPACING">      0.50000000</i>
    <i type="logical" name="KGAMMA"> T  </i>
    <i type="logical" name="KBLOWUP"> T  </i>
   </separator>
   <separator name="electronic projectors" >
    <i type="logical" name="LREAL"> F  </i>
    <v name="ROPT">      0.00000000      0.00000000      0.00000000</v>
    <i type="int" name="LMAXPAW">  -100</i>
    <i type="int" name="LMAXMIX">     2</i>
    <i type="logical" name="NLSPLINE"> F  </i>
   </separator>
   <separator name="electronic startup" >
    <i type="int" name="ISTART">     0</i>
    <i type="int" name="ICHARG">     2</i>
    <i type="int" name="INIWAV">     1</i>
   </separator>
   <separator name="electronic spin" >
    <i type="int" name="ISPIN">     1</i>
    <i type="logical" name="LNONCOLLINEAR"> F  </i>
    <v name="MAGMOM">      1.00000000      1.00000000      1.00000000      1.00000000      1.00000000      1.00000000      1.00000000      1.00000000      1.00000000      1.00000000      1.00000000      1.00000000      1.00000000      1.00000000      1.00000000      1.00000000      1.00000000</v>
    <i name="NUPDOWN">     -1.00000000</i>
    <i type="logical" name="LSORBIT"> F  </i>
    <v name="SAXIS">      0.00000000      0.00000000      1.00000000</v>
    <i type="logical" name="LSPIRAL"> F  </i>
    <v name="QSPIRAL">      0.00000000      0.00000000      0.00000000</v>
    <i type="logical" name="LZEROZ"> F  </i>
   </separator>
   <separator name="electronic exchange-correlation" >
    <i type="logical" name="LASPH"> F  </i>
    <i type="logical" name="LMETAGGA"> F  </i>
   </separator>
   <separator name="electronic convergence" >
    <i type="int" name="NELM">    60</i>
    <i type="int" name="NELMDL">    -5</i>
    <i type="int" name="NELMIN">     2</i>
    <i name="ENINI">    400.00000000</i>
    <separator name="electronic convergence detail" >
     <i type="logical" name="LDIAG"> T  </i>
     <i type="logical" name="LSUBROT"> F  </i>
     <i name="WEIMIN">      0.00100000</i>
     <i name="EBREAK">      0.00000008</i>
     <i name="DEPER">      0.30000000</i>
     <i type="int" name="NRMM">     4</i>
     <i name="TIME">      0.40000000</i>
    </separator>
   </separator>
   <separator name="electronic mixer" >
    <i name="AMIX">      0.40000000</i>
    <i name="BMIX">      1.00000000</i>
    <i name="AMIN">      0.10000000</i>
    <i name="AMIX_MAG">      1.60000000</i>
    <i name="BMIX_MAG">      1.00000000</i>
    <separator name="electronic mixer details" >
     <i type="int" name="IMIX">     4</i>
     <i type="logical" name="MIXFIRST"> F  </i>
     <i type="int" name="MAXMIX">   -45</i>
     <i name="WC">    100.00000000</i>
     <i type="int" name="INIMIX">     1</i>
     <i type="int" name="MIXPRE">     1</i>
     <i type="int" name="MREMOVE">     5</i>
    </separator>
   </separator>
   <separator name="electronic dipolcorrection" >
    <i type="logical" name="LDIPOL"> F  </i>
    <i type="logical" name="LMONO"> F  </i>
    <i type="int" name="IDIPOL">     0</i>
    <i name="EPSILON">      1.00000000</i>
    <v name="DIPOL">   -100.00000000   -100.00000000   -100.00000000</v>
    <i name="EFIELD">      0.00000000</i>
   </separator>
  </separator>
  <separator name="grids" >
   <i type="int" name="NGX">    80</i>
   <i type="int" name="NGY">    80</i>
   <i type="int" name="NGZ">    80</i>
   <i type="int" name="NGXF">   160</i>
   <i type="int" name="NGYF">   160</i>
   <i type="int" name="NGZF">   160</i>
   <i type="logical" name="ADDGRID"> F  </i>
  </separator>
  <separator name="ionic" >
   <i type="int" name="NSW">  5000</i>
   <i type="int" name="IBRION">     1</i>
   <i type="int" name="MDALGO">     0</i>
   <i type="int" name="ISIF">     2</i>
   <i name="PSTRESS">      0.00000000</i>
   <i name="EDIFFG">     -0.05000000</i>
   <i type="int" name="NFREE">     0</i>
   <i name="POTIM">      0.10000000</i>
   <i name="SMASS">     -3.00000000</i>
   <i name="SCALEE">      1.00000000</i>
  </separator>
  <separator name="ionic md" >
   <i name="TEBEG">      0.00010000</i>
   <i name="TEEND">      0.00010000</i>
   <i type="int" name="NBLOCK">     1</i>
   <i type="int" name="KBLOCK">  5000</i>
   <i type="int" name="NPACO">   256</i>
   <i name="APACO">     10.00000000</i>
  </separator>
  <separator name="symmetry" >
   <i type="int" name="ISYM">     2</i>
   <i name="SYMPREC">      0.00001000</i>
  </separator>
  <separator name="dos" >
   <i type="int" name="LORBIT">     0</i>
   <v name="RWIGS">     -1.00000000     -1.00000000     -1.00000000</v>
   <i type="int" name="NEDOS">   301</i>
   <i name="EMIN">     10.00000000</i>
   <i name="EMAX">    -10.00000000</i>
   <i name="EFERMI">      0.00000000</i>
  </separator>
  <separator name="writing" >
   <i type="int" name="NWRITE">     2</i>
   <i type="logical" name="LWAVE"> F  </i>
   <i type="logical" name="LDOWNSAMPLE"> F  </i>
   <i type="logical" name="LCHARG"> F  </i>
   <i type="logical" name="LPARD"> F  </i>
   <i type="logical" name="LVTOT"> F  </i>
   <i type="logical" name="LVHAR"> F  </i>
   <i type="logical" name="LELF"> F  </i>
   <i type="logical" name="LOPTICS"> F  </i>
   <v name="STM">      0.00000000      0.00000000      0.00000000      0.00000000      0.00000000      0.00000000      0.00000000</v>
  </separator>
  <separator name="performance" >
   <i type="int" name="NPAR">     2</i>
   <i type="int" name="NSIM">     4</i>
   <i type="int" name="NBLK">    -1</i>
   <i type="logical" name="LPLANE"> T  </i>
   <i type="logical" name="LSCALAPACK"> T  </i>
   <i type="logical" name="LSCAAWARE"> F  </i>
   <i type="logical" name="LSCALU"> F  </i>
   <i type="logical" name="LASYNC"> F  </i>
   <i type="logical" name="LORBITALREAL"> F  </i>
  </separator>
  <separator name="miscellaneous" >
   <i type="int" name="IDIOT">     3</i>
   <i type="int" name="PHON_NSTRUCT">    -1</i>
   <i type="logical" name="LMUSIC"> F  </i>
   <v name="POMASS">     12.01100000      1.00000000     14.00100000</v>
   <v name="DARWINR">      0.00000000      0.00000000      0.00000000</v>
   <v name="DARWINV">      1.00000000      1.00000000      1.00000000</v>
   <i type="logical" name="LCORR"> T  </i>
  </separator>
  <i type="logical" name="GGA_COMPAT"> T  </i>
  <i type="logical" name="LBERRY"> F  </i>
  <i type="int" name="ICORELEVEL">     0</i>
  <i type="logical" name="LDAU"> F  </i>
  <i type="int" name="I_CONSTRAINED_M">     0</i>
  <separator name="electronic exchange-correlation" >
   <i type="string" name="GGA">PE</i>
   <i type="int" name="VOSKOWN">     0</i>
   <i type="logical" name="LHFCALC"> F  </i>
   <i type="string" name="PRECFOCK"></i>
   <i type="logical" name="LSYMGRAD"> F  </i>
   <i type="logical" name="LHFONE"> F  </i>
   <i type="logical" name="LRHFCALC"> F  </i>
   <i type="logical" name="LTHOMAS"> F  </i>
   <i type="logical" name="LMODELHF"> F  </i>
   <i type="logical" name="LFOCKACE"> F  </i>
   <i name="ENCUT4O">     -1.00000000</i>
   <i type="int" name="EXXOEP">     0</i>
   <i type="int" name="FOURORBIT">     0</i>
   <i name="AEXX">      0.00000000</i>
   <i name="HFALPHA">      0.00000000</i>
   <i name="MCALPHA">      0.00000000</i>
   <i name="ALDAX">      1.00000000</i>
   <i name="AGGAX">      1.00000000</i>
   <i name="ALDAC">      1.00000000</i>
   <i name="AGGAC">      1.00000000</i>
   <i type="int" name="NKREDX">     1</i>
   <i type="int" name="NKREDY">     1</i>
   <i type="int" name="NKREDZ">     1</i>
   <i type="logical" name="SHIFTRED"> F  </i>
   <i type="logical" name="ODDONLY"> F  </i>
   <i type="logical" name="EVENONLY"> F  </i>
   <i type="int" name="LMAXFOCK">     0</i>
   <i type="int" name="NMAXFOCKAE">     0</i>
   <i type="logical" name="LFOCKAEDFT"> F  </i>
   <i name="HFSCREEN">      0.00000000</i>
   <i name="HFSCREENC">      0.00000000</i>
   <i type="int" name="NBANDSGWLOW">     0</i>
  </separator>
  <separator name="vdW DFT" >
   <i type="logical" name="LUSE_VDW"> F  </i>
   <i name="Zab_VDW">     -0.84910000</i>
   <i name="PARAM1">      0.12340000</i>
   <i name="PARAM2">      1.00000000</i>
   <i name="PARAM3">      0.00000000</i>
  </separator>
  <separator name="model GW" >
   <i type="int" name="MODEL_GW">     0</i>
   <i name="MODEL_EPS0">    128.95995071</i>
   <i name="MODEL_ALPHA">      1.00000000</i>
  </separator>
  <separator name="linear response parameters" >
   <i type="logical" name="LEPSILON"> F  </i>
   <i type="logical" name="LRPA"> F  </i>
   <i type="logical" name="LNABLA"> F  </i>
   <i type="logical" name="LVEL"> F  </i>
   <i name="CSHIFT">      0.10000000</i>
   <i name="OMEGAMAX">     -1.00000000</i>
   <i name="DEG_THRESHOLD">      0.00200000</i>
   <i name="RTIME">     -0.10000000</i>
   <i name="WPLASMAI">      0.00000000</i>
   <v name="DFIELD">      0.00000000      0.00000000      0.00000000</v>
   <v name="WPLASMA">      0.00000000      0.00000000      0.00000000      0.00000000      0.00000000      0.00000000      0.00000000      0.00000000      0.00000000</v>
  </separator>
  <separator name="orbital magnetization" >
   <i type="logical" name="NUCIND"> F  </i>
   <v name="MAGPOS">      0.00000000      0.00000000      0.00000000</v>
   <i type="logical" name="LNICSALL"> T  </i>
   <i type="logical" name="ORBITALMAG"> F  </i>
   <i type="logical" name="LMAGBLOCH"> F  </i>
   <i type="logical" name="LCHIMAG"> F  </i>
   <i type="logical" name="LGAUGE"> T  </i>
   <i type="int" name="MAGATOM">     0</i>
   <v name="MAGDIPOL">      0.00000000      0.00000000      0.00000000</v>
   <v name="AVECCONST">      0.00000000      0.00000000      0.00000000</v>
  </separator>
  <separator name="response functions" >
   <i type="logical" name="LFINITE_TEMPERATURE"> F  </i>
   <i type="logical" name="LADDER"> F  </i>
   <i type="logical" name="LRPAFORCE"> F  </i>
   <i type="logical" name="LFXC"> F  </i>
   <i type="logical" name="LHARTREE"> T  </i>
   <i type="int" name="IBSE">     0</i>
   <v type="int" name="KPOINT">    -1     0     0     0</v>
   <i type="logical" name="LTCTC"> F  </i>
   <i type="logical" name="LTCTE"> F  </i>
   <i type="logical" name="LTETE"> F  </i>
   <i type="logical" name="LTRIPLET"> F  </i>
   <i type="logical" name="LFXCEPS"> F  </i>
   <i type="logical" name="LFXHEG"> F  </i>
   <i type="int" name="NATURALO">     2</i>
   <i type="logical" name="LHOLEGF"> F  </i>
   <i type="logical" name="L2ORDER"> F  </i>
   <i type="logical" name="LDMP1"> F  </i>
   <i type="logical" name="LMP2LT"> F  </i>
   <i type="logical" name="LSMP2LT"> F  </i>
   <i type="logical" name="LGWLF"> F  </i>
   <i name="ENCUTGW">     -2.00000000</i>
   <i name="ENCUTGWSOFT">     -2.00000000</i>
   <i name="ENCUTLF">     -1.00000000</i>
   <i type="logical" name="LESF_SPLINES"> F  </i>
   <i type="int" name="LMAXMP2">    -1</i>
   <i name="SCISSOR">      0.00000000</i>
   <i type="int" name="NOMEGA">     0</i>
   <i type="int" name="NOMEGAR">     0</i>
   <i type="int" name="NBANDSGW">    -1</i>
   <i type="int" name="NBANDSO">    -1</i>
   <i type="int" name="NBANDSV">    -1</i>
   <i type="int" name="NELMGW">     1</i>
   <i type="int" name="NELMHF">     1</i>
   <i type="int" name="DIM">     3</i>
   <i type="int" name="IESPILON">     4</i>
   <i type="int" name="ANTIRES">     0</i>
   <i name="OMEGAMAX">    -30.00000000</i>
   <i name="OMEGAMIN">    -30.00000000</i>
   <i name="OMEGATL">   -200.00000000</i>
   <i type="int" name="OMEGAGRID">     0</i>
   <i name="CSHIFT">     -0.10000000</i>
   <i type="logical" name="LSELFENERGY"> F  </i>
   <i type="logical" name="LSPECTRAL"> F  </i>
   <i type="logical" name="LSPECTRALGW"> F  </i>
   <i type="logical" name="LSINGLES"> F  </i>
   <i type="logical" name="LFERMIGW"> F  </i>
   <i type="logical" name="ODDONLYGW"> F  </i>
   <i type="logical" name="EVENONLYGW"> F  </i>
   <i type="int" name="NKREDLFX">     1</i>
   <i type="int" name="NKREDLFY">     1</i>
   <i type="int" name="NKREDLFZ">     1</i>
   <i type="int" name="MAXMEM">  2800</i>
   <i type="int" name="TELESCOPE">     0</i>
   <i type="int" name="NTAUPAR">    -1</i>
   <i type="int" name="NOMEGAPAR">    -1</i>
   <i name="DAMP_NEWTON">      0.80000001</i>
   <i name="LAMBDA">      1.00000000</i>
  </separator>
  <separator name="External order field" >
   <i name="OFIELD_KAPPA">      0.00000000</i>
   <v name="OFIELD_K">      0.00000000      0.00000000      0.00000000</v>
   <i name="OFIELD_Q6_NEAR">      0.00000000</i>
   <i name="OFIELD_Q6_FAR">      0.00000000</i>
   <i name="OFIELD_A">      0.00000000</i>
  </separator>
  <separator name="optional k-points parameters" >
   <i type="int" name="KPOINTS_OPT_MODE">     1</i>
   <i type="logical" name="LKPOINTS_OPT"> F  </i>
  </separator>
 </parameters>
 <atominfo>
  <atoms>      17 </atoms>
  <types>       3 </types>
  <array name="atoms" >
   <dimension dim="1">ion</dimension>
   <field type="string">element</field>
   <field type="int">atomtype</field>
   <set>
    <rc><c>C </c><c>   1</c></rc>
    <rc><c>C </c><c>   1</c></rc>
    <rc><c>C </c><c>   1</c></rc>
    <rc><c>C </c><c>   1</c></rc>
    <rc><c>C </c><c>   1</c></rc>
    <rc><c>C </c><c>   1</c></rc>
    <rc><c>C </c><c>   1</c></rc>
    <rc><c>H </c><c>   2</c></rc>
    <rc><c>H </c><c>   2</c></rc>
    <rc><c>H </c><c>   2</c></rc>
    <rc><c>H </c><c>   2</c></rc>
    <rc><c>H </c><c>   2</c></rc>
    <rc><c>H </c><c>   2</c></rc>
    <rc><c>H </c><c>   2</c></rc>
    <rc><c>H </c><c>   2</c></rc>
    <rc><c>H </c><c>   2</c></rc>
    <rc><c>N </c><c>   3</c></rc>
   </set>
  </array>
  <array name="atomtypes" >
   <dimension dim="1">type</dimension>
   <field type="int">atomspertype</field>
   <field type="string">element</field>
   <field>mass</field>
   <field>valence</field>
   <field type="string">pseudopotential</field>
   <set>
    <rc><c>   7</c><c>C </c><c>     12.01100000</c><c>      4.00000000</c><c>  PAW_PBE C 08Apr2002                   </c></rc>
    <rc><c>   9</c><c>H </c><c>      1.00000000</c><c>      1.00000000</c><c>  PAW_PBE H 15Jun2001                   </c></rc>
    <rc><c>   1</c><c>N </c><c>     14.00100000</c><c>      5.00000000</c><c>  PAW_PBE N 08Apr2002                   </c></rc>
   </set>
  </array>
 </atominfo>
 <structure name="initialpos" >
  <crystal>
   <varray name="basis" >
    <v>      15.40225029       0.00000000       0.00000000 </v>
    <v>       0.00000000      15.40225029       0.00000000 </v>
    <v>       0.00000000       0.00000000      15.40225029 </v>
   </varray>
   <i name="volume">   3653.86527022 </i>
   <varray name="rec_basis" >
    <v>       0.06492558       0.00000000       0.00000000 </v>
    <v>       0.00000000       0.06492558       0.00000000 </v>
    <v>       0.00000000       0.00000000       0.06492558 </v>
   </varray>
  </crystal>
  <varray name="positions" >
   <v>       0.33454951       0.43963786       0.56400203 </v>
   <v>       0.33212456       0.52643492       0.56781525 </v>
   <v>       0.41474472       0.57540069       0.55497844 </v>
   <v>       0.42058382       0.39761510       0.55051049 </v>
   <v>       0.47192147       0.44018295       0.47543507 </v>
   <v>       0.46021670       0.53990610       0.47264481 </v>
   <v>       0.54202710       0.58311650       0.45547523 </v>
   <v>       0.27574686       0.40064791       0.56849954 </v>
   <v>       0.46127224       0.40774711       0.60803614 </v>
   <v>       0.41569096       0.32742770       0.54114545 </v>
   <v>       0.27148083       0.56174627       0.57639824 </v>
   <v>       0.46017111       0.56515758       0.60873298 </v>
   <v>       0.40426479       0.64542354       0.54927916 </v>
   <v>       0.45176349       0.41327843       0.41301675 </v>
   <v>       0.54042805       0.42389284       0.48286345 </v>
   <v>       0.41716090       0.55541125       0.41826784 </v>
   <v>       0.60814699       0.61699102       0.44093218 </v>
  </varray>
 </structure>
 <calculation>
  <scstep>
   <time name="dav">    2.50    2.52</time>
   <time name="total">    3.77    3.79</time>
   <energy>
    <i name="alphaZ">      2.15216506 </i>
    <i name="ewald">   2589.89119885 </i>
    <i name="hartreedc">  -3526.41136491 </i>
    <i name="XCdc">    131.48245966 </i>
    <i name="pawpsdc">    983.79330320 </i>
    <i name="pawaedc">   -989.05002801 </i>
    <i name="eentropy">     -0.00137513 </i>
    <i name="bandstr">   -260.85652372 </i>
    <i name="atom">   1406.67326350 </i>
    <i name="e_fr_energy">    337.67309850 </i>
    <i name="e_wo_entrp">    337.67447363 </i>
    <i name="e_0_energy">    337.67378606 </i>
   </energy>
  </scstep>
  <scstep>
   <time name="dav">    1.90    1.90</time>
   <time name="total">    1.90    1.90</time>
   <energy>
    <i name="e_fr_energy">     71.08909978 </i>
    <i name="e_wo_entrp">     71.08909978 </i>
    <i name="e_0_energy">     71.08909978 </i>
   </energy>
  </scstep>
  <scstep>
   <time name="dav">    1.68    1.68</time>
   <time name="total">    1.68    1.68</time>
   <energy>
    <i name="e_fr_energy">    -89.43581744 </i>
    <i name="e_wo_entrp">    -89.43581744 </i>
    <i name="e_0_energy">    -89.43581744 </i>
   </energy>
  </scstep>
  <scstep>
   <time name="dav">    1.95    1.95</time>
   <time name="total">    1.95    1.95</time>
   <energy>
    <i name="e_fr_energy">   -113.70052010 </i>
    <i name="e_wo_entrp">   -113.70052010 </i>
    <i name="e_0_energy">   -113.70052010 </i>
   </energy>
  </scstep>
  <scstep>
   <time name="dav">    1.92    1.93</time>
   <time name="total">    2.16    2.16</time>
   <energy>
    <i name="e_fr_energy">   -114.05711325 </i>
    <i name="e_wo_entrp">   -114.05711325 </i>
    <i name="e_0_energy">   -114.05711325 </i>
   </energy>
  </scstep>
  <scstep>
   <time name="diag">    0.39    0.39</time>
   <time name="diis">    1.83    1.83</time>
   <time name="orth">    0.01    0.01</time>
   <time name="total">    4.24    4.25</time>
   <energy>
    <i name="e_fr_energy">   -105.66702129 </i>
    <i name="e_wo_entrp">   -105.66702129 </i>
    <i name="e_0_energy">   -105.66702129 </i>
   </energy>
  </scstep>
  <scstep>
   <time name="diag">    0.18    0.18</time>
   <time name="diis">    1.70    1.71</time>
   <time name="orth">    0.01    0.01</time>
   <time name="total">    3.27    3.29</time>
   <energy>
    <i name="e_fr_energy">   -103.57973498 </i>
    <i name="e_wo_entrp">   -103.57973498 </i>
    <i name="e_0_energy">   -103.57973498 </i>
   </energy>
  </scstep>
  <scstep>
   <time name="diag">    0.22    0.22</time>
   <time name="diis">    1.31    1.31</time>
   <time name="orth">    0.01    0.02</time>
   <time name="total">    2.84    2.85</time>
   <energy>
    <i name="e_fr_energy">   -103.40073450 </i>
    <i name="e_wo_entrp">   -103.40073450 </i>
    <i name="e_0_energy">   -103.40073450 </i>
   </energy>
  </scstep>
  <scstep>
   <time name="diag">    0.58    0.58</time>
   <time name="diis">    3.15    3.15</time>
   <time name="orth">    0.02    0.04</time>
   <time name="total">    5.91    6.07</time>
   <energy>
    <i name="e_fr_energy">   -103.29737248 </i>
    <i name="e_wo_entrp">   -103.29737248 </i>
    <i name="e_0_energy">   -103.29737248 </i>
   </energy>
  </scstep>
  <scstep>
   <time name="diag">    0.25    0.25</time>
   <time name="diis">    1.48    1.48</time>
   <time name="orth">    0.01    0.01</time>
   <time name="total">    3.10    3.10</time>
   <energy>
    <i name="e_fr_energy">   -103.29254717 </i>
    <i name="e_wo_entrp">   -103.29254717 </i>
    <i name="e_0_energy">   -103.29254717 </i>
   </energy>
  </scstep>
  <scstep>
   <time name="diag">    0.27    0.27</time>
   <time name="diis">    1.33    1.33</time>
   <time name="orth">    0.01    0.01</time>
   <time name="total">    2.96    2.96</time>
   <energy>
    <i name="e_fr_energy">   -103.30318521 </i>
    <i name="e_wo_entrp">   -103.30318521 </i>
    <i name="e_0_energy">   -103.30318521 </i>
   </energy>
  </scstep>
  <scstep>
   <time name="diag">    0.22    0.22</time>
   <time name="diis">    1.17    1.17</time>
   <time name="orth">    0.01    0.01</time>
   <time name="total">    3.04    3.05</time>
   <energy>
    <i name="e_fr_energy">   -103.29774954 </i>
    <i name="e_wo_entrp">   -103.29774954 </i>
    <i name="e_0_energy">   -103.29774954 </i>
   </energy>
  </scstep>
  <scstep>
   <time name="diag">    0.21    0.21</time>
   <time name="diis">    1.25    1.25</time>
   <time name="orth">    0.01    0.01</time>
   <time name="total">    2.80    2.80</time>
   <energy>
    <i name="e_fr_energy">   -103.30459049 </i>
    <i name="e_wo_entrp">   -103.30459049 </i>
    <i name="e_0_energy">   -103.30459049 </i>
   </energy>
  </scstep>
  <scstep>
   <time name="diag">    0.18    0.18</time>
   <time name="diis">    1.37    1.37</time>
   <time name="orth">    0.01    0.01</time>
   <time name="total">    2.77    2.77</time>
   <energy>
    <i name="e_fr_energy">   -103.30713184 </i>
    <i name="e_wo_entrp">   -103.30713184 </i>
    <i name="e_0_energy">   -103.30713184 </i>
   </energy>
  </scstep>
  <scstep>
   <time name="diag">    0.37    0.37</time>
   <time name="diis">    2.27    2.27</time>
   <time name="orth">    0.01    0.01</time>
   <time name="total">    4.67    4.93</time>
   <energy>
    <i name="e_fr_energy">   -103.31808055 </i>
    <i name="e_wo_entrp">   -103.31808055 </i>
    <i name="e_0_energy">   -103.31808055 </i>
   </energy>
  </scstep>
  <scstep>
   <time name="diag">    0.40    0.40</time>
   <time name="diis">    2.67    2.67</time>
   <time name="orth">    0.03    0.03</time>
   <time name="total">    5.26    5.27</time>
   <energy>
    <i name="e_fr_energy">   -103.32127167 </i>
    <i name="e_wo_entrp">   -103.32127167 </i>
    <i name="e_0_energy">   -103.32127167 </i>
   </energy>
  </scstep>
  <scstep>
   <time name="diag">    0.48    0.48</time>
   <time name="diis">    2.16    2.16</time>
   <time name="orth">    0.01    0.01</time>
   <time name="total">    5.10    5.10</time>
   <energy>
    <i name="e_fr_energy">   -103.32495498 </i>
    <i name="e_wo_entrp">   -103.32495498 </i>
    <i name="e_0_energy">   -103.32495498 </i>
   </energy>
  </scstep>
  <scstep>
   <time name="diag">    0.37    0.37</time>
   <time name="diis">    1.49    1.49</time>
   <time name="orth">    0.03    0.03</time>
   <time name="total">    4.22    4.22</time>
   <energy>
    <i name="e_fr_energy">   -103.32564549 </i>
    <i name="e_wo_entrp">   -103.32564549 </i>
    <i name="e_0_energy">   -103.32564549 </i>
   </energy>
  </scstep>
  <scstep>
   <time name="diag">    0.19    0.19</time>
   <time name="diis">    1.27    1.27</time>
   <time name="orth">    0.01    0.01</time>
   <time name="total">    3.38    3.38</time>
   <energy>
    <i name="e_fr_energy">   -103.32643938 </i>
    <i name="e_wo_entrp">   -103.32643938 </i>
    <i name="e_0_energy">   -103.32643938 </i>
   </energy>
  </scstep>
  <scstep>
   <time name="diag">    0.20    0.20</time>
   <time name="diis">    1.28    1.28</time>
   <time name="orth">    0.01    0.01</time>
   <time name="total">    2.89    2.89</time>
   <energy>
    <i name="e_fr_energy">   -103.32656197 </i>
    <i name="e_wo_entrp">   -103.32656197 </i>
    <i name="e_0_energy">   -103.32656197 </i>
   </energy>
  </scstep>
  <scstep>
   <time name="diag">    0.62    0.62</time>
   <time name="diis">    2.66    2.66</time>
   <time name="orth">    0.03    0.03</time>
   <time name="total">    6.09    6.09</time>
   <energy>
    <i name="e_fr_energy">   -103.32669769 </i>
    <i name="e_wo_entrp">   -103.32669769 </i>
    <i name="e_0_energy">   -103.32669769 </i>
   </energy>
  </scstep>
  <scstep>
   <time name="diag">    0.62    0.62</time>
   <time name="diis">    2.22    2.22</time>
   <time name="orth">    0.02    0.02</time>
   <time name="total">    5.53    5.54</time>
   <energy>
    <i name="e_fr_energy">   -103.32673272 </i>
    <i name="e_wo_entrp">   -103.32673272 </i>
    <i name="e_0_energy">   -103.32673272 </i>
   </energy>
  </scstep>
  <scstep>
   <time name="diag">    0.59    0.59</time>
   <time name="diis">    2.09    2.09</time>
   <time name="orth">    0.03    0.03</time>
   <time name="total">    5.42    5.42</time>
   <energy>
    <i name="e_fr_energy">   -103.32675915 </i>
    <i name="e_wo_entrp">   -103.32675915 </i>
    <i name="e_0_energy">   -103.32675915 </i>
   </energy>
  </scstep>
  <scstep>
   <time name="diag">    0.65    0.65</time>
   <time name="diis">    1.48    1.48</time>
   <time name="orth">    0.02    0.02</time>
   <time name="total">    4.91    4.92</time>
   <energy>
    <i name="e_fr_energy">   -103.32677121 </i>
    <i name="e_wo_entrp">   -103.32677121 </i>
    <i name="e_0_energy">   -103.32677121 </i>
   </energy>
  </scstep>
  <scstep>
   <time name="diag">    0.54    0.55</time>
   <time name="diis">    1.49    1.49</time>
   <time name="orth">    0.02    0.02</time>
   <time name="total">    4.40    4.41</time>
   <energy>
    <i name="alphaZ">      2.15216506 </i>
    <i name="ewald">   2589.89119885 </i>
    <i name="hartreedc">  -3722.18079002 </i>
    <i name="XCdc">    140.84571377 </i>
    <i name="pawpsdc">   3497.63648778 </i>
    <i name="pawaedc">  -3503.96459542 </i>
    <i name="eentropy">     -0.00000000 </i>
    <i name="bandstr">   -514.38022168 </i>
    <i name="atom">   1406.67326350 </i>
    <i name="e_fr_energy">   -103.32677816 </i>
    <i name="e_wo_entrp">   -103.32677816 </i>
    <i name="e_0_energy">   -103.32677816 </i>
   </energy>
  </scstep>
  <structure>
   <crystal>
    <varray name="basis" >
     <v>      15.40225029       0.00000000       0.00000000 </v>
     <v>       0.00000000      15.40225029       0.00000000 </v>
     <v>       0.00000000       0.00000000      15.40225029 </v>
    </varray>
    <i name="volume">   3653.86527022 </i>
    <varray name="rec_basis" >
     <v>       0.06492558       0.00000000       0.00000000 </v>
     <v>       0.00000000       0.06492558       0.00000000 </v>
     <v>       0.00000000       0.00000000       0.06492558 </v>
    </varray>
   </crystal>
   <varray name="positions" >
    <v>       0.33454951       0.43963786       0.56400203 </v>
    <v>       0.33212456       0.52643492       0.56781525 </v>
    <v>       0.41474472       0.57540069       0.55497844 </v>
    <v>       0.42058382       0.39761510       0.55051049 </v>
    <v>       0.47192147       0.44018295       0.47543507 </v>
    <v>       0.46021670       0.53990610       0.47264481 </v>
    <v>       0.54202710       0.58311650       0.45547523 </v>
    <v>       0.27574686       0.40064791       0.56849954 </v>
    <v>       0.46127224       0.40774711       0.60803614 </v>
    <v>       0.41569096       0.32742770       0.54114545 </v>
    <v>       0.27148083       0.56174627       0.57639824 </v>
    <v>       0.46017111       0.56515758       0.60873298 </v>
    <v>       0.40426479       0.64542354       0.54927916 </v>
    <v>       0.45176349       0.41327843       0.41301675 </v>
    <v>       0.54042805       0.42389284       0.48286345 </v>
    <v>       0.41716090       0.55541125       0.41826784 </v>
    <v>       0.60814699       0.61699102       0.44093218 </v>
   </varray>
  </structure>
  <varray name="forces" >
   <v>      -0.14653627       0.06484186      -0.02952382 </v>
   <v>      -0.19081481       0.01211365       0.04461065 </v>
   <v>       0.09717785       0.07370555      -0.05740746 </v>
   <v>       0.24828317       0.05577623      -0.19360850 </v>
   <v>      -0.09035774      -0.23673691       0.01340700 </v>
   <v>      -0.15932864      -0.00407110      -0.14237677 </v>
   <v>       0.04298337       0.07618125      -0.03070888 </v>
   <v>      -0.07896933      -0.06861137       0.08342467 </v>
   <v>       0.01391817      -0.09306029       0.40538172 </v>
   <v>       0.00370785      -0.15395095      -0.07877066 </v>
   <v>      -0.08831352       0.05608464       0.03666292 </v>
   <v>       0.08889279       0.02747462       0.38102330 </v>
   <v>       0.00008913       0.12432362      -0.02173610 </v>
   <v>      -0.12059263      -0.10397745      -0.19612407 </v>
   <v>       0.28964848      -0.05288239       0.03464441 </v>
   <v>      -0.13385918       0.09466775      -0.24206168 </v>
   <v>       0.22407131       0.12812128      -0.00683673 </v>
  </varray>
  <varray name="stress" >
   <v>       0.00300592       0.01541350       0.02607614 </v>
   <v>       0.01541350      -0.05969777       0.01062064 </v>
   <v>       0.02607614       0.01062064      -0.06856108 </v>
  </varray>
  <energy>
   <i name="e_fr_energy">   -103.52625312 </i>
   <i name="e_wo_entrp">   -103.52625312 </i>
   <i name="e_0_energy">   -103.52625312 </i>
  </energy>
  <time name="totalsc">  126.44  127.02</time>
 </calculation>
 <calculation>
  <scstep>
   <time name="dav">    3.40    3.40</time>
   <time name="total">    6.03    6.03</time>
   <energy>
    <i name="alphaZ">      2.15216506 </i>
    <i name="ewald">   2587.03207653 </i>
    <i name="hartreedc">  -3719.95379719 </i>
    <i name="XCdc">    140.80293667 </i>
    <i name="pawpsdc">   3497.61554720 </i>
    <i name="pawaedc">  -3503.94373458 </i>
    <i name="eentropy">     -0.00000000 </i>
    <i name="bandstr">   -513.71238287 </i>
    <i name="atom">   1406.67326350 </i>
    <i name="e_fr_energy">   -103.33392568 </i>
    <i name="e_wo_entrp">   -103.33392568 </i>
    <i name="e_0_energy">   -103.33392568 </i>
   </energy>
  </scstep>
  <scstep>
   <time name="diag">    0.55    0.55</time>
   <time name="diis">    2.82    2.82</time>
   <time name="orth">    0.03    0.03</time>
   <time name="total">    5.91    5.91</time>
   <energy>
    <i name="e_fr_energy">   -103.33410095 </i>
    <i name="e_wo_entrp">   -103.33410095 </i>
    <i name="e_0_energy">   -103.33410095 </i>
   </energy>
  </scstep>
  <scstep>
   <time name="diag">    0.60    0.60</time>
   <time name="diis">    2.72    2.72</time>
   <time name="orth">    0.02    0.02</time>
   <time name="total">    5.99    5.99</time>
   <energy>
    <i name="e_fr_energy">   -103.33409616 </i>
    <i name="e_wo_entrp">   -103.33409616 </i>
    <i name="e_0_energy">   -103.33409616 </i>
   </energy>
  </scstep>
  <scstep>
   <time name="diag">    0.53    0.53</time>
   <time name="diis">    2.29    2.29</time>
   <time name="orth">    0.02    0.02</time>
   <time name="total">    5.26    5.26</time>
   <energy>
    <i name="e_fr_energy">   -103.33412183 </i>
    <i name="e_wo_entrp">   -103.33412183 </i>
    <i name="e_0_energy">   -103.33412183 </i>
   </energy>
  </scstep>
  <scstep>
   <time name="diag">    0.32    0.32</time>
   <time name="diis">    1.49    1.49</time>
   <time name="orth">    0.01    0.01</time>
   <time name="total">    3.09    3.09</time>
   <energy>
    <i name="alphaZ">      2.15216506 </i>
    <i name="ewald">   2587.03207653 </i>
    <i name="hartreedc">  -3719.54549771 </i>
    <i name="XCdc">    140.78563023 </i>
    <i name="pawpsdc">   3487.93746706 </i>
    <i name="pawaedc">  -3494.25977294 </i>
    <i name="eentropy">     -0.00000000 </i>
    <i name="bandstr">   -514.10945949 </i>
    <i name="atom">   1406.67326350 </i>
    <i name="e_fr_energy">   -103.33412776 </i>
    <i name="e_wo_entrp">   -103.33412776 </i>
    <i name="e_0_energy">   -103.33412776 </i>
   </energy>
  </scstep>
  <structure>
   <crystal>
    <varray name="basis" >
     <v>      15.40225029       0.00000000       0.00000000 </v>
     <v>       0.00000000      15.40225029       0.00000000 </v>
     <v>       0.00000000       0.00000000      15.40225029 </v>
    </varray>
    <i name="volume">   3653.86527022 </i>
    <varray name="rec_basis" >
     <v>       0.06492558       0.00000000       0.00000000 </v>
     <v>       0.00000000       0.06492558       0.00000000 </v>
     <v>       0.00000000       0.00000000       0.06492558 </v>
    </varray>
   </crystal>
   <varray name="positions" >
    <v>       0.33450326       0.43967605       0.56403168 </v>
    <v>       0.33202520       0.52644002       0.56784904 </v>
    <v>       0.41479338       0.57544802       0.55483765 </v>
    <v>       0.42076585       0.39767713       0.55031002 </v>
    <v>       0.47164766       0.44001870       0.47521236 </v>
    <v>       0.45998560       0.53990222       0.47237056 </v>
    <v>       0.54193896       0.58311645       0.45523368 </v>
    <v>       0.27575660       0.40059170       0.56864494 </v>
    <v>       0.46141659       0.40781431       0.60807416 </v>
    <v>       0.41575205       0.32735082       0.54110296 </v>
    <v>       0.27143690       0.56176510       0.57642647 </v>
    <v>       0.46029494       0.56514402       0.60877424 </v>
    <v>       0.40425360       0.64550545       0.54920802 </v>
    <v>       0.45122350       0.41321603       0.41280809 </v>
    <v>       0.54035157       0.42377719       0.48240913 </v>
    <v>       0.41691162       0.55553765       0.41799067 </v>
    <v>       0.60817537       0.61702251       0.44071733 </v>
   </varray>
  </structure>
  <varray name="forces" >
   <v>      -0.08212832       0.01179611      -0.04359691 </v>
   <v>      -0.11130246       0.04569002       0.02641947 </v>
   <v>       0.07595120       0.04034385       0.00960170 </v>
   <v>       0.14603899      -0.00087945      -0.05457596 </v>
   <v>       0.01772381      -0.16188284      -0.04082335 </v>
   <v>      -0.10185024       0.00346280      -0.12711090 </v>
   <v>       0.16574691       0.13129766      -0.06779256 </v>
   <v>      -0.07153226      -0.06644375       0.08196425 </v>
   <v>      -0.02066401      -0.09903585       0.32619423 </v>
   <v>       0.01076766      -0.09522183      -0.07108165 </v>
   <v>      -0.10535240       0.06644210       0.04352208 </v>
   <v>       0.03674997       0.03926320       0.29625822 </v>
   <v>       0.00702626       0.10461718      -0.02251530 </v>
   <v>      -0.11238649      -0.10580265      -0.18233073 </v>
   <v>       0.21515402      -0.03706742       0.01418652 </v>
   <v>      -0.12204619       0.08392718      -0.22095878 </v>
   <v>       0.05210356       0.03949368       0.03263968 </v>
  </varray>
  <varray name="stress" >
   <v>      -0.21550006      -0.00763426      -0.02009619 </v>
   <v>      -0.00763426      -0.16318843       0.00147118 </v>
   <v>      -0.02009619       0.00147118      -0.14040447 </v>
  </varray>
  <energy>
   <i name="e_fr_energy">   -103.53364089 </i>
   <i name="e_wo_entrp">   -103.53364089 </i>
   <i name="e_0_energy">   -103.53364089 </i>
  </energy>
  <time name="totalsc">   36.71   36.72</time>
 </calculation>
 <calculation>
  <scstep>
   <time name="dav">    3.02    3.02</time>
   <time name="total">    5.00    5.04</time>
   <energy>
    <i name="alphaZ">      2.15216506 </i>
    <i name="ewald">   2584.08751296 </i>
    <i name="hartreedc">  -3717.05581137 </i>
    <i name="XCdc">    140.74396380 </i>
    <i name="pawpsdc">   3487.28374557 </i>
    <i name="pawaedc">  -3493.60586420 </i>
    <i name="eentropy">     -0.00000000 </i>
    <i name="bandstr">   -513.61869707 </i>
    <i name="atom">   1406.67326350 </i>
    <i name="e_fr_energy">   -103.33972174 </i>
    <i name="e_wo_entrp">   -103.33972174 </i>
    <i name="e_0_energy">   -103.33972174 </i>
   </energy>
  </scstep>
  <scstep>
   <time name="diag">    0.48    0.48</time>
   <time name="diis">    2.98    2.98</time>
   <time name="orth">    0.02    0.02</time>
   <time name="total">    5.99    6.01</time>
   <energy>
    <i name="e_fr_energy">   -103.34012443 </i>
    <i name="e_wo_entrp">   -103.34012443 </i>
    <i name="e_0_energy">   -103.34012443 </i>
   </energy>
  </scstep>
  <scstep>
   <time name="diag">    0.64    0.64</time>
   <time name="diis">    3.09    3.09</time>
   <time name="orth">    0.02    0.02</time>
   <time name="total">    6.17    6.17</time>
   <energy>
    <i name="e_fr_energy">   -103.34014731 </i>
    <i name="e_wo_entrp">   -103.34014731 </i>
    <i name="e_0_energy">   -103.34014731 </i>
   </energy>
  </scstep>
  <scstep>
   <time name="diag">    0.49    0.49</time>
   <time name="diis">    2.78    2.78</time>
   <time name="orth">    0.02    0.04</time>
   <time name="total">    5.42    5.57</time>
   <energy>
    <i name="e_fr_energy">   -103.34019618 </i>
    <i name="e_wo_entrp">   -103.34019618 </i>
    <i name="e_0_energy">   -103.34019618 </i>
   </energy>
  </scstep>
  <scstep>
   <time name="diag">    0.43    0.43</time>
   <time name="diis">    1.70    1.72</time>
   <time name="orth">    0.01    0.01</time>
   <time name="total">    3.64    3.66</time>
   <energy>
    <i name="alphaZ">      2.15216506 </i>
    <i name="ewald">   2584.08751296 </i>
    <i name="hartreedc">  -3716.79141702 </i>
    <i name="XCdc">    140.73600230 </i>
    <i name="pawpsdc">   3480.18985490 </i>
    <i name="pawaedc">  -3486.50950975 </i>
    <i name="eentropy">     -0.00000000 </i>
    <i name="bandstr">   -513.87807260 </i>
    <i name="atom">   1406.67326350 </i>
    <i name="e_fr_energy">   -103.34020065 </i>
    <i name="e_wo_entrp">   -103.34020065 </i>
    <i name="e_0_energy">   -103.34020065 </i>
   </energy>
  </scstep>
  <structure>
   <crystal>
    <varray name="basis" >
     <v>      15.40225029       0.00000000       0.00000000 </v>
     <v>       0.00000000      15.40225029       0.00000000 </v>
     <v>       0.00000000       0.00000000      15.40225029 </v>
    </varray>
    <i name="volume">   3653.86527022 </i>
    <varray name="rec_basis" >
     <v>       0.06492558       0.00000000       0.00000000 </v>
     <v>       0.00000000       0.06492558       0.00000000 </v>
     <v>       0.00000000       0.00000000       0.06492558 </v>
    </varray>
   </crystal>
   <varray name="positions" >
    <v>       0.33448904       0.43968469       0.56405538 </v>
    <v>       0.33194706       0.52647884       0.56787991 </v>
    <v>       0.41485179       0.57548262       0.55468649 </v>
    <v>       0.42094376       0.39771702       0.55013495 </v>
    <v>       0.47135434       0.43984145       0.47486149 </v>
    <v>       0.45970025       0.53990715       0.47200288 </v>
    <v>       0.54193091       0.58317339       0.45485848 </v>
    <v>       0.27577334       0.40050845       0.56885795 </v>
    <v>       0.46158938       0.40789585       0.60808120 </v>
    <v>       0.41584632       0.32729018       0.54104158 </v>
    <v>       0.27135427       0.56180559       0.57647928 </v>
    <v>       0.46042505       0.56513883       0.60877982 </v>
    <v>       0.40424675       0.64560708       0.54909820 </v>
    <v>       0.45046253       0.41312418       0.41251228 </v>
    <v>       0.54018832       0.42362876       0.48175039 </v>
    <v>       0.41656321       0.55571085       0.41760219 </v>
    <v>       0.60806608       0.61698805       0.44044642 </v>
   </varray>
  </structure>
  <varray name="forces" >
   <v>      -0.04483477       0.00701686      -0.04520826 </v>
   <v>      -0.05957901       0.02926059       0.01177223 </v>
   <v>       0.05462289       0.03396989       0.04524904 </v>
   <v>       0.06661273      -0.03591422       0.04405268 </v>
   <v>       0.06486712      -0.08169770      -0.08469918 </v>
   <v>      -0.00439625       0.03098749      -0.12961565 </v>
   <v>      -0.17110603      -0.04676063      -0.00437853 </v>
   <v>      -0.05373704      -0.05705210       0.07778915 </v>
   <v>      -0.04679487      -0.10289775       0.25381317 </v>
   <v>       0.01543024      -0.05384229      -0.06108221 </v>
   <v>      -0.09950315       0.06551814       0.04707993 </v>
   <v>      -0.00491470       0.04768714       0.21803412 </v>
   <v>       0.01741473       0.06988498      -0.01965527 </v>
   <v>      -0.09494965      -0.10266885      -0.15432579 </v>
   <v>       0.17170106      -0.02872689      -0.00490386 </v>
   <v>      -0.09229506       0.06911268      -0.17769705 </v>
   <v>       0.28146176       0.15612265      -0.01622450 </v>
  </varray>
  <varray name="stress" >
   <v>      -0.28354998       0.04370785      -0.08674208 </v>
   <v>       0.04370784      -0.26595532      -0.02066133 </v>
   <v>      -0.08674208      -0.02066134      -0.23135334 </v>
  </varray>
  <energy>
   <i name="e_fr_energy">   -103.53979596 </i>
   <i name="e_wo_entrp">   -103.53979596 </i>
   <i name="e_0_energy">   -103.53979596 </i>
  </energy>
  <time name="totalsc">   38.09   38.37</time>
 </calculation>
 <calculation>
  <scstep>
   <time name="dav">    2.97    3.00</time>
   <time name="total">    5.45    5.50</time>
   <energy>
    <i name="alphaZ">      2.15216506 </i>
    <i name="ewald">   2581.88656437 </i>
    <i name="hartreedc">  -3715.11589704 </i>
    <i name="XCdc">    140.70278787 </i>
    <i name="pawpsdc">   3479.76771002 </i>
    <i name="pawaedc">  -3486.08734552 </i>
    <i name="eentropy">     -0.00000000 </i>
    <i name="bandstr">   -513.32225567 </i>
    <i name="atom">   1406.67326350 </i>
    <i name="e_fr_energy">   -103.34300741 </i>
    <i name="e_wo_entrp">   -103.34300741 </i>
    <i name="e_0_energy">   -103.34300741 </i>
   </energy>
  </scstep>
  <scstep>
   <time name="diag">    0.52    0.52</time>
   <time name="diis">    2.99    2.99</time>
   <time name="orth">    0.03    0.03</time>
   <time name="total">    5.62    5.62</time>
   <energy>
    <i name="e_fr_energy">   -103.34312579 </i>
    <i name="e_wo_entrp">   -103.34312579 </i>
    <i name="e_0_energy">   -103.34312579 </i>
   </energy>
  </scstep>
  <scstep>
   <time name="diag">    0.64    0.64</time>
   <time name="diis">    3.17    3.17</time>
   <time name="orth">    0.02    0.02</time>
   <time name="total">    6.41    6.41</time>
   <energy>
    <i name="e_fr_energy">   -103.34312750 </i>
    <i name="e_wo_entrp">   -103.34312750 </i>
    <i name="e_0_energy">   -103.34312750 </i>
   </energy>
  </scstep>
  <scstep>
   <time name="diag">    0.51    0.51</time>
   <time name="diis">    2.69    2.69</time>
   <time name="orth">    0.02    0.02</time>
   <time name="total">    5.52    5.52</time>
   <energy>
    <i name="e_fr_energy">   -103.34314442 </i>
    <i name="e_wo_entrp">   -103.34314442 </i>
    <i name="e_0_energy">   -103.34314442 </i>
   </energy>
  </scstep>
  <scstep>
   <time name="diag">    0.26    0.26</time>
   <time name="diis">    1.06    1.06</time>
   <time name="orth">    0.01    0.01</time>
   <time name="total">    2.80    2.80</time>
   <energy>
    <i name="alphaZ">      2.15216506 </i>
    <i name="ewald">   2581.88656437 </i>
    <i name="hartreedc">  -3714.73269100 </i>
    <i name="XCdc">    140.68578152 </i>
    <i name="pawpsdc">   3470.74767122 </i>
    <i name="pawaedc">  -3477.06114497 </i>
    <i name="eentropy">     -0.00000000 </i>
    <i name="bandstr">   -513.69475926 </i>
    <i name="atom">   1406.67326350 </i>
    <i name="e_fr_energy">   -103.34314956 </i>
    <i name="e_wo_entrp">   -103.34314956 </i>
    <i name="e_0_energy">   -103.34314956 </i>
   </energy>
  </scstep>
  <structure>
   <crystal>
    <varray name="basis" >
     <v>      15.40225029       0.00000000       0.00000000 </v>
     <v>       0.00000000      15.40225029       0.00000000 </v>
     <v>       0.00000000       0.00000000      15.40225029 </v>
    </varray>
    <i name="volume">   3653.86527022 </i>
    <varray name="rec_basis" >
     <v>       0.06492558       0.00000000       0.00000000 </v>
     <v>       0.00000000       0.06492558       0.00000000 </v>
     <v>       0.00000000       0.00000000       0.06492558 </v>
    </varray>
   </crystal>
   <varray name="positions" >
    <v>       0.33449334       0.43968834       0.56406465 </v>
    <v>       0.33191772       0.52649640       0.56789073 </v>
    <v>       0.41488351       0.57549997       0.55460432 </v>
    <v>       0.42102396       0.39772653       0.55006531 </v>
    <v>       0.47119561       0.43976222       0.47463210 </v>
    <v>       0.45956376       0.53992562       0.47177936 </v>
    <v>       0.54177586       0.58313172       0.45465791 </v>
    <v>       0.27578960       0.40045770       0.56899328 </v>
    <v>       0.46168150       0.40793744       0.60806868 </v>
    <v>       0.41590744       0.32726974       0.54100201 </v>
    <v>       0.27130255       0.56183354       0.57651868 </v>
    <v>       0.46048529       0.56514232       0.60876300 </v>
    <v>       0.40424975       0.64565479       0.54902522 </v>
    <v>       0.45000188       0.41306868       0.41233537 </v>
    <v>       0.54007555       0.42354322       0.48134000 </v>
    <v>       0.41635988       0.55581225       0.41737418 </v>
    <v>       0.60810678       0.61702004       0.44025584 </v>
   </varray>
  </structure>
  <varray name="forces" >
   <v>      -0.03654305       0.00036413      -0.04136674 </v>
   <v>      -0.04637401       0.02797492       0.00632894 </v>
   <v>       0.03655868       0.03269851       0.05700461 </v>
   <v>       0.03867912      -0.03809234       0.06866384 </v>
   <v>       0.07048402      -0.05704435      -0.09222379 </v>
   <v>      -0.02254482       0.01237581      -0.11939834 </v>
   <v>       0.15839657       0.11975031      -0.07995723 </v>
   <v>      -0.04164966      -0.04879812       0.07432044 </v>
   <v>      -0.05500658      -0.10348673       0.22339051 </v>
   <v>       0.01556247      -0.04180394      -0.05604435 </v>
   <v>      -0.08629564       0.05848248       0.04664123 </v>
   <v>      -0.02041931       0.05044282       0.18279908 </v>
   <v>       0.02157585       0.05389162      -0.01746625 </v>
   <v>      -0.08444933      -0.09904383      -0.13775943 </v>
   <v>       0.15704679      -0.02578222      -0.01441397 </v>
   <v>      -0.07677708       0.06019195      -0.15101432 </v>
   <v>      -0.02824402      -0.00212102       0.05049578 </v>
  </varray>
  <varray name="stress" >
   <v>      -0.46539409      -0.00731667      -0.08071196 </v>
   <v>      -0.00731667      -0.35681315      -0.01135728 </v>
   <v>      -0.08071196      -0.01135728      -0.29428001 </v>
  </varray>
  <energy>
   <i name="e_fr_energy">   -103.54276390 </i>
   <i name="e_wo_entrp">   -103.54276390 </i>
   <i name="e_0_energy">   -103.54276390 </i>
  </energy>
  <time name="totalsc">   36.29   36.34</time>
 </calculation>
 <calculation>
  <scstep>
   <time name="dav">    2.01    2.01</time>
   <time name="total">    4.09    4.09</time>
   <energy>
    <i name="alphaZ">      2.15216506 </i>
    <i name="ewald">   2580.92539670 </i>
    <i name="hartreedc">  -3713.88080720 </i>
    <i name="XCdc">    140.67331142 </i>
    <i name="pawpsdc">   3470.20231381 </i>
    <i name="pawaedc">  -3476.51571583 </i>
    <i name="eentropy">     -0.00000000 </i>
    <i name="bandstr">   -513.57484540 </i>
    <i name="atom">   1406.67326350 </i>
    <i name="e_fr_energy">   -103.34491794 </i>
    <i name="e_wo_entrp">   -103.34491794 </i>
    <i name="e_0_energy">   -103.34491794 </i>
   </energy>
  </scstep>
  <scstep>
   <time name="diag">    0.44    0.44</time>
   <time name="diis">    2.22    2.23</time>
   <time name="orth">    0.02    0.02</time>
   <time name="total">    4.49    4.50</time>
   <energy>
    <i name="e_fr_energy">   -103.34501375 </i>
    <i name="e_wo_entrp">   -103.34501375 </i>
    <i name="e_0_energy">   -103.34501375 </i>
   </energy>
  </scstep>
  <scstep>
   <time name="diag">    0.46    0.46</time>
   <time name="diis">    2.81    2.81</time>
   <time name="orth">    0.03    0.03</time>
   <time name="total">    5.75    5.75</time>
   <energy>
    <i name="e_fr_energy">   -103.34503118 </i>
    <i name="e_wo_entrp">   -103.34503118 </i>
    <i name="e_0_energy">   -103.34503118 </i>
   </energy>
  </scstep>
  <scstep>
   <time name="diag">    0.31    0.31</time>
   <time name="diis">    0.94    0.94</time>
   <time name="orth">    0.00    0.00</time>
   <time name="total">    3.22    3.23</time>
   <energy>
    <i name="e_fr_energy">   -103.34504219 </i>
    <i name="e_wo_entrp">   -103.34504219 </i>
    <i name="e_0_energy">   -103.34504219 </i>
   </energy>
  </scstep>
  <scstep>
   <time name="diag">    0.13    0.13</time>
   <time name="diis">    0.59    0.59</time>
   <time name="orth">    0.01    0.01</time>
   <time name="total">    1.38    1.38</time>
   <energy>
    <i name="alphaZ">      2.15216506 </i>
    <i name="ewald">   2580.92539670 </i>
    <i name="hartreedc">  -3713.83361694 </i>
    <i name="XCdc">    140.67329771 </i>
    <i name="pawpsdc">   3468.46467221 </i>
    <i name="pawaedc">  -3474.77793761 </i>
    <i name="eentropy">     -0.00000000 </i>
    <i name="bandstr">   -513.62228470 </i>
    <i name="atom">   1406.67326350 </i>
    <i name="e_fr_energy">   -103.34504406 </i>
    <i name="e_wo_entrp">   -103.34504406 </i>
    <i name="e_0_energy">   -103.34504406 </i>
   </energy>
  </scstep>
  <structure>
   <crystal>
    <varray name="basis" >
     <v>      15.40225029       0.00000000       0.00000000 </v>
     <v>       0.00000000      15.40225029       0.00000000 </v>
     <v>       0.00000000       0.00000000      15.40225029 </v>
    </varray>
    <i name="volume">   3653.86527022 </i>
    <varray name="rec_basis" >
     <v>       0.06492558       0.00000000       0.00000000 </v>
     <v>       0.00000000       0.06492558       0.00000000 </v>
     <v>       0.00000000       0.00000000       0.06492558 </v>
    </varray>
   </crystal>
   <varray name="positions" >
    <v>       0.33450749       0.43968643       0.56406733 </v>
    <v>       0.33190950       0.52650729       0.56788951 </v>
    <v>       0.41490033       0.57551107       0.55454674 </v>
    <v>       0.42106057       0.39772348       0.55004304 </v>
    <v>       0.47107997       0.43972537       0.47442767 </v>
    <v>       0.45945934       0.53994185       0.47159959 </v>
    <v>       0.54174993       0.58315137       0.45446331 </v>
    <v>       0.27581312       0.40041692       0.56911400 </v>
    <v>       0.46174251       0.40796051       0.60804175 </v>
    <v>       0.41596216       0.32726944       0.54096460 </v>
    <v>       0.27126348       0.56185787       0.57656107 </v>
    <v>       0.46051237       0.56515389       0.60872651 </v>
    <v>       0.40426181       0.64567621       0.54895510 </v>
    <v>       0.44962342       0.41302452       0.41219306 </v>
    <v>       0.53996922       0.42347848       0.48098678 </v>
    <v>       0.41620288       0.55589020       0.41719805 </v>
    <v>       0.60802561       0.61698514       0.44011792 </v>
   </varray>
  </structure>
  <varray name="forces" >
   <v>      -0.03981013      -0.00118305      -0.03332525 </v>
   <v>      -0.05032976       0.02915739       0.00601128 </v>
   <v>       0.02950395       0.02963124       0.04601835 </v>
   <v>       0.03618589      -0.02559047       0.05444375 </v>
   <v>       0.05531506      -0.04710910      -0.08187887 </v>
   <v>      -0.00337229       0.01790682      -0.11749717 </v>
   <v>      -0.00037647       0.03764898      -0.04642400 </v>
   <v>      -0.03308691      -0.04153898       0.07097283 </v>
   <v>      -0.05377446      -0.10153062       0.21153876 </v>
   <v>       0.01333505      -0.04300971      -0.05212732 </v>
   <v>      -0.06886823       0.04840101       0.04415169 </v>
   <v>      -0.02284966       0.04987864       0.16733042 </v>
   <v>       0.02227861       0.04844603      -0.01519090 </v>
   <v>      -0.07585556      -0.09489816      -0.12468095 </v>
   <v>       0.15548305      -0.02540409      -0.01952689 </v>
   <v>      -0.06388152       0.05573633      -0.13164494 </v>
   <v>       0.10010338       0.06345772       0.02182921 </v>
  </varray>
  <varray name="stress" >
   <v>      -0.45476232       0.01899178      -0.09248993 </v>
   <v>       0.01899178      -0.38077036      -0.01571353 </v>
   <v>      -0.09248993      -0.01571353      -0.33802469 </v>
  </varray>
  <energy>
   <i name="e_fr_energy">   -103.54469632 </i>
   <i name="e_wo_entrp">   -103.54469632 </i>
   <i name="e_0_energy">   -103.54469632 </i>
  </energy>
  <time name="totalsc">   33.80   35.88</time>
 </calculation>
 <calculation>
  <scstep>
   <time name="dav">    2.36    2.99</time>
   <time name="total">    5.54    7.13</time>
   <energy>
    <i name="alphaZ">      2.15216506 </i>
    <i name="ewald">   2578.89510908 </i>
    <i name="hartreedc">  -3712.18602989 </i>
    <i name="XCdc">    140.64435587 </i>
    <i name="pawpsdc">   3468.37677893 </i>
    <i name="pawaedc">  -3474.69006447 </i>
    <i name="eentropy">     -0.00000000 </i>
    <i name="bandstr">   -513.21305367 </i>
    <i name="atom">   1406.67326350 </i>
    <i name="e_fr_energy">   -103.34747559 </i>
    <i name="e_wo_entrp">   -103.34747559 </i>
    <i name="e_0_energy">   -103.34747559 </i>
   </energy>
  </scstep>
  <scstep>
   <time name="diag">    0.33    0.66</time>
   <time name="diis">    2.25    3.25</time>
   <time name="orth">    0.23    0.47</time>
   <time name="total">    4.81    7.74</time>
   <energy>
    <i name="e_fr_energy">   -103.34800565 </i>
    <i name="e_wo_entrp">   -103.34800565 </i>
    <i name="e_0_energy">   -103.34800565 </i>
   </energy>
  </scstep>
  <scstep>
   <time name="diag">    0.25    0.38</time>
   <time name="diis">    2.02    2.45</time>
   <time name="orth">    0.03    0.03</time>
   <time name="total">    4.14    6.44</time>
   <energy>
    <i name="e_fr_energy">   -103.34809785 </i>
    <i name="e_wo_entrp">   -103.34809785 </i>
    <i name="e_0_energy">   -103.34809785 </i>
   </energy>
  </scstep>
  <scstep>
   <time name="diag">    0.29    0.45</time>
   <time name="diis">    1.20    1.35</time>
   <time name="orth">    0.01    0.01</time>
   <time name="total">    3.03    4.02</time>
   <energy>
    <i name="e_fr_energy">   -103.34814194 </i>
    <i name="e_wo_entrp">   -103.34814194 </i>
    <i name="e_0_energy">   -103.34814194 </i>
   </energy>
  </scstep>
  <scstep>
   <time name="diag">    0.14    0.15</time>
   <time name="diis">    0.66    0.94</time>
   <time name="orth">    0.01    0.01</time>
   <time name="total">    1.65    2.03</time>
   <energy>
    <i name="alphaZ">      2.15216506 </i>
    <i name="ewald">   2578.89510908 </i>
    <i name="hartreedc">  -3711.94959358 </i>
    <i name="XCdc">    140.63528585 </i>
    <i name="pawpsdc">   3461.65559306 </i>
    <i name="pawaedc">  -3467.96503949 </i>
    <i name="eentropy">     -0.00000000 </i>
    <i name="bandstr">   -513.44493236 </i>
    <i name="atom">   1406.67326350 </i>
    <i name="e_fr_energy">   -103.34814889 </i>
    <i name="e_wo_entrp">   -103.34814889 </i>
    <i name="e_0_energy">   -103.34814889 </i>
   </energy>
  </scstep>
  <structure>
   <crystal>
    <varray name="basis" >
     <v>      15.40225029       0.00000000       0.00000000 </v>
     <v>       0.00000000      15.40225029       0.00000000 </v>
     <v>       0.00000000       0.00000000      15.40225029 </v>
    </varray>
    <i name="volume">   3653.86527022 </i>
    <varray name="rec_basis" >
     <v>       0.06492558       0.00000000       0.00000000 </v>
     <v>       0.00000000       0.06492558       0.00000000 </v>
     <v>       0.00000000       0.00000000       0.06492558 </v>
    </varray>
   </crystal>
   <varray name="positions" >
    <v>       0.33453902       0.43966895       0.56406859 </v>
    <v>       0.33189626       0.52653216       0.56785990 </v>
    <v>       0.41491396       0.57552483       0.55440952 </v>
    <v>       0.42109921       0.39772561       0.55001804 </v>
    <v>       0.47081552       0.43970614       0.47396607 </v>
    <v>       0.45927341       0.53999593       0.47120297 </v>
    <v>       0.54152272       0.58311863       0.45405270 </v>
    <v>       0.27590109       0.40033251       0.56941749 </v>
    <v>       0.46184411       0.40797258       0.60797149 </v>
    <v>       0.41609152       0.32729024       0.54085691 </v>
    <v>       0.27121506       0.56190182       0.57668791 </v>
    <v>       0.46051889       0.56520447       0.60861173 </v>
    <v>       0.40431717       0.64568087       0.54875875 </v>
    <v>       0.44879238       0.41293880       0.41188836 </v>
    <v>       0.53972468       0.42335300       0.48016185 </v>
    <v>       0.41589398       0.55604756       0.41684596 </v>
    <v>       0.60793488       0.61694215       0.43976779 </v>
   </varray>
  </structure>
  <varray name="forces" >
   <v>      -0.04563183       0.02164600      -0.01194468 </v>
   <v>      -0.05755345       0.01216828       0.00722293 </v>
   <v>       0.01475401       0.01952858       0.01071616 </v>
   <v>       0.05232093       0.00491601      -0.00860471 </v>
   <v>       0.02132216      -0.05940481      -0.04571965 </v>
   <v>      -0.04126663      -0.00810192      -0.08899273 </v>
   <v>       0.18518648       0.12950090      -0.08425319 </v>
   <v>      -0.03044605      -0.03487403       0.06402418 </v>
   <v>      -0.04396531      -0.09271656       0.19689122 </v>
   <v>       0.00516425      -0.05070514      -0.04567601 </v>
   <v>      -0.04291632       0.03213436       0.03783536 </v>
   <v>      -0.01534067       0.04321755       0.14843989 </v>
   <v>       0.01632744       0.05410514      -0.01045403 </v>
   <v>      -0.06013252      -0.08144252      -0.09654084 </v>
   <v>       0.14797914      -0.02334012      -0.02629050 </v>
   <v>      -0.04846001       0.04952890      -0.10127008 </v>
   <v>      -0.05734161      -0.01616062       0.05461669 </v>
  </varray>
  <varray name="stress" >
   <v>      -0.54244872      -0.00512609      -0.07390750 </v>
   <v>      -0.00512609      -0.44754595      -0.00435045 </v>
   <v>      -0.07390750      -0.00435045      -0.43591543 </v>
  </varray>
  <energy>
   <i name="e_fr_energy">   -103.54784404 </i>
   <i name="e_wo_entrp">   -103.54784404 </i>
   <i name="e_0_energy">   -103.54784404 </i>
  </energy>
  <time name="totalsc">   31.48   46.05</time>
 </calculation>
 <calculation>
  <scstep>
   <time name="dav">    1.88    2.39</time>
   <time name="total">    3.51    5.16</time>
   <energy>
    <i name="alphaZ">      2.15216506 </i>
    <i name="ewald">   2576.54018974 </i>
    <i name="hartreedc">  -3709.79369121 </i>
    <i name="XCdc">    140.60288585 </i>
    <i name="pawpsdc">   3461.61034359 </i>
    <i name="pawaedc">  -3467.91961387 </i>
    <i name="eentropy">     -0.00000000 </i>
    <i name="bandstr">   -513.21562147 </i>
    <i name="atom">   1406.67326350 </i>
    <i name="e_fr_energy">   -103.35007882 </i>
    <i name="e_wo_entrp">   -103.35007882 </i>
    <i name="e_0_energy">   -103.35007882 </i>
   </energy>
  </scstep>
  <scstep>
   <time name="diag">    0.28    0.28</time>
   <time name="diis">    2.16    2.52</time>
   <time name="orth">    0.04    0.04</time>
   <time name="total">    4.29    4.74</time>
   <energy>
    <i name="e_fr_energy">   -103.35180988 </i>
    <i name="e_wo_entrp">   -103.35180988 </i>
    <i name="e_0_energy">   -103.35180988 </i>
   </energy>
  </scstep>
  <scstep>
   <time name="diag">    0.42    0.54</time>
   <time name="diis">    1.75    2.20</time>
   <time name="orth">    0.02    0.02</time>
   <time name="total">    4.14    5.28</time>
   <energy>
    <i name="e_fr_energy">   -103.35204299 </i>
    <i name="e_wo_entrp">   -103.35204299 </i>
    <i name="e_0_energy">   -103.35204299 </i>
   </energy>
  </scstep>
  <scstep>
   <time name="diag">    0.37    0.39</time>
   <time name="diis">    1.58    1.68</time>
   <time name="orth">    0.02    0.02</time>
   <time name="total">    4.05    4.59</time>
   <energy>
    <i name="e_fr_energy">   -103.35217742 </i>
    <i name="e_wo_entrp">   -103.35217742 </i>
    <i name="e_0_energy">   -103.35217742 </i>
   </energy>
  </scstep>
  <scstep>
   <time name="diag">    0.27    0.53</time>
   <time name="diis">    1.56    2.56</time>
   <time name="orth">    0.01    0.02</time>
   <time name="total">    3.31    5.30</time>
   <energy>
    <i name="e_fr_energy">   -103.35219195 </i>
    <i name="e_wo_entrp">   -103.35219195 </i>
    <i name="e_0_energy">   -103.35219195 </i>
   </energy>
  </scstep>
  <scstep>
   <time name="diag">    0.15    0.21</time>
   <time name="diis">    0.78    0.79</time>
   <time name="orth">    0.00    0.01</time>
   <time name="total">    1.76    2.20</time>
   <energy>
    <i name="alphaZ">      2.15216506 </i>
    <i name="ewald">   2576.54018974 </i>
    <i name="hartreedc">  -3709.75021667 </i>
    <i name="XCdc">    140.60621845 </i>
    <i name="pawpsdc">   3458.33882427 </i>
    <i name="pawaedc">  -3464.64891678 </i>
    <i name="eentropy">     -0.00000000 </i>
    <i name="bandstr">   -513.26372755 </i>
    <i name="atom">   1406.67326350 </i>
    <i name="e_fr_energy">   -103.35219998 </i>
    <i name="e_wo_entrp">   -103.35219998 </i>
    <i name="e_0_energy">   -103.35219998 </i>
   </energy>
  </scstep>
  <structure>
   <crystal>
    <varray name="basis" >
     <v>      15.40225029       0.00000000       0.00000000 </v>
     <v>       0.00000000      15.40225029       0.00000000 </v>
     <v>       0.00000000       0.00000000      15.40225029 </v>
    </varray>
    <i name="volume">   3653.86527022 </i>
    <varray name="rec_basis" >
     <v>       0.06492558       0.00000000       0.00000000 </v>
     <v>       0.00000000       0.06492558       0.00000000 </v>
     <v>       0.00000000       0.00000000       0.06492558 </v>
    </varray>
   </crystal>
   <varray name="positions" >
    <v>       0.33456754       0.43967219       0.56408149 </v>
    <v>       0.33184124       0.52655409       0.56779602 </v>
    <v>       0.41492069       0.57553617       0.55412992 </v>
    <v>       0.42120367       0.39777279       0.54988407 </v>
    <v>       0.47031806       0.43965225       0.47321451 </v>
    <v>       0.45890031       0.54005364       0.47053969 </v>
    <v>       0.54134639       0.58318033       0.45330632 </v>
    <v>       0.27605584       0.40017916       0.56997255 </v>
    <v>       0.46201072       0.40796413       0.60790062 </v>
    <v>       0.41630864       0.32730551       0.54063856 </v>
    <v>       0.27116320       0.56196869       0.57693223 </v>
    <v>       0.46052131       0.56530041       0.60844862 </v>
    <v>       0.40441999       0.64570039       0.54838139 </v>
    <v>       0.44737755       0.41281421       0.41137367 </v>
    <v>       0.53932772       0.42315575       0.47873465 </v>
    <v>       0.41538014       0.55631258       0.41625467 </v>
    <v>       0.60761350       0.61677302       0.43918061 </v>
   </varray>
  </structure>
  <varray name="forces" >
   <v>      -0.03638547       0.00789476       0.01230076 </v>
   <v>      -0.04827894       0.02302581       0.01084234 </v>
   <v>       0.00412603       0.01050708      -0.02076979 </v>
   <v>       0.05086936       0.01167352      -0.04079110 </v>
   <v>       0.02050212      -0.06116355      -0.02210898 </v>
   <v>       0.01435510       0.01058125      -0.06194739 </v>
   <v>      -0.28859746      -0.12106677       0.01923123 </v>
   <v>      -0.02412006      -0.02218769       0.05342487 </v>
   <v>      -0.04323333      -0.07927744       0.14137775 </v>
   <v>      -0.00605184      -0.03605987      -0.03351636 </v>
   <v>      -0.01800256       0.01411720       0.03052763 </v>
   <v>      -0.02007080       0.03523515       0.09589712 </v>
   <v>       0.00500870       0.05441262      -0.00206814 </v>
   <v>      -0.03444433      -0.06251989      -0.04748937 </v>
   <v>       0.10957904      -0.01708510      -0.03882347 </v>
   <v>      -0.02718421       0.04227683      -0.06117555 </v>
   <v>       0.34192865       0.18963608      -0.03491155 </v>
  </varray>
  <varray name="stress" >
   <v>      -0.47998846       0.07116791      -0.11303481 </v>
   <v>       0.07116791      -0.48676464      -0.01849446 </v>
   <v>      -0.11303482      -0.01849446      -0.58333005 </v>
  </varray>
  <energy>
   <i name="e_fr_energy">   -103.55199724 </i>
   <i name="e_wo_entrp">   -103.55199724 </i>
   <i name="e_0_energy">   -103.55199724 </i>
  </energy>
  <time name="totalsc">   38.59   48.61</time>
 </calculation>
 <calculation>
  <scstep>
   <time name="dav">    1.99    3.01</time>
   <time name="total">    4.09    5.94</time>
   <energy>
    <i name="alphaZ">      2.15216506 </i>
    <i name="ewald">   2574.82846896 </i>
    <i name="hartreedc">  -3708.54267724 </i>
    <i name="XCdc">    140.57837047 </i>
    <i name="pawpsdc">   3458.31576085 </i>
    <i name="pawaedc">  -3464.62571063 </i>
    <i name="eentropy">     -0.00000000 </i>
    <i name="bandstr">   -512.73307034 </i>
    <i name="atom">   1406.67326350 </i>
    <i name="e_fr_energy">   -103.35342938 </i>
    <i name="e_wo_entrp">   -103.35342938 </i>
    <i name="e_0_energy">   -103.35342938 </i>
   </energy>
  </scstep>
  <scstep>
   <time name="diag">    0.28    0.42</time>
   <time name="diis">    1.68    2.49</time>
   <time name="orth">    0.02    0.07</time>
   <time name="total">    5.09    6.88</time>
   <energy>
    <i name="e_fr_energy">   -103.35361436 </i>
    <i name="e_wo_entrp">   -103.35361436 </i>
    <i name="e_0_energy">   -103.35361436 </i>
   </energy>
  </scstep>
  <scstep>
   <time name="diag">    0.29    0.30</time>
   <time name="diis">    1.66    1.72</time>
   <time name="orth">    0.01    0.01</time>
   <time name="total">    3.84    4.28</time>
   <energy>
    <i name="e_fr_energy">   -103.35360956 </i>
    <i name="e_wo_entrp">   -103.35360956 </i>
    <i name="e_0_energy">   -103.35360956 </i>
   </energy>
  </scstep>
  <scstep>
   <time name="diag">    0.30    0.30</time>
   <time name="diis">    1.64    1.69</time>
   <time name="orth">    0.04    0.04</time>
   <time name="total">    3.66    4.66</time>
   <energy>
    <i name="e_fr_energy">   -103.35363287 </i>
    <i name="e_wo_entrp">   -103.35363287 </i>
    <i name="e_0_energy">   -103.35363287 </i>
   </energy>
  </scstep>
  <scstep>
   <time name="diag">    0.38    0.41</time>
   <time name="diis">    1.86    2.00</time>
   <time name="orth">    0.01    0.01</time>
   <time name="total">    3.73    3.99</time>
   <energy>
    <i name="alphaZ">      2.15216506 </i>
    <i name="ewald">   2574.82846896 </i>
    <i name="hartreedc">  -3708.14461061 </i>
    <i name="XCdc">    140.55826900 </i>
    <i name="pawpsdc">   3448.71058394 </i>
    <i name="pawaedc">  -3455.01312930 </i>
    <i name="eentropy">     -0.00000000 </i>
    <i name="bandstr">   -513.11864995 </i>
    <i name="atom">   1406.67326350 </i>
    <i name="e_fr_energy">   -103.35363940 </i>
    <i name="e_wo_entrp">   -103.35363940 </i>
    <i name="e_0_energy">   -103.35363940 </i>
   </energy>
  </scstep>
  <structure>
   <crystal>
    <varray name="basis" >
     <v>      15.40225029       0.00000000       0.00000000 </v>
     <v>       0.00000000      15.40225029       0.00000000 </v>
     <v>       0.00000000       0.00000000      15.40225029 </v>
    </varray>
    <i name="volume">   3653.86527022 </i>
    <varray name="rec_basis" >
     <v>       0.06492558       0.00000000       0.00000000 </v>
     <v>       0.00000000       0.06492558       0.00000000 </v>
     <v>       0.00000000       0.00000000       0.06492558 </v>
    </varray>
   </crystal>
   <varray name="positions" >
    <v>       0.33457256       0.43967050       0.56409167 </v>
    <v>       0.33181350       0.52656557       0.56776447 </v>
    <v>       0.41491332       0.57553394       0.55400905 </v>
    <v>       0.42124519       0.39779877       0.54981256 </v>
    <v>       0.47013383       0.43963505       0.47294707 </v>
    <v>       0.45878699       0.54008009       0.47030115 </v>
    <v>       0.54107240       0.58309948       0.45307456 </v>
    <v>       0.27611983       0.40012075       0.57019894 </v>
    <v>       0.46205686       0.40794050       0.60788267 </v>
    <v>       0.41638592       0.32731364       0.54053914 </v>
    <v>       0.27116094       0.56198895       0.57704091 </v>
    <v>       0.46050317       0.56534449       0.60838836 </v>
    <v>       0.40446289       0.64570790       0.54821859 </v>
    <v>       0.44686637       0.41278113       0.41119668 </v>
    <v>       0.53918141       0.42309599       0.47819493 </v>
    <v>       0.41520476       0.55640687       0.41604956 </v>
    <v>       0.60767486       0.61679641       0.43891174 </v>
   </varray>
  </structure>
  <varray name="forces" >
   <v>      -0.02842022       0.01062730       0.01799123 </v>
   <v>      -0.03767728       0.01501834       0.01106940 </v>
   <v>      -0.00352371       0.01409106      -0.02052809 </v>
   <v>       0.04568446       0.00842898      -0.04028474 </v>
   <v>       0.02312583      -0.06586141      -0.01706369 </v>
   <v>      -0.05306711      -0.02780461      -0.03762648 </v>
   <v>       0.32253919       0.18434124      -0.10919518 </v>
   <v>      -0.02530101      -0.02000446       0.04980298 </v>
   <v>      -0.04413804      -0.07383112       0.11674856 </v>
   <v>      -0.01010047      -0.02873843      -0.03048930 </v>
   <v>      -0.01793080       0.01275497       0.02839248 </v>
   <v>      -0.02248609       0.03196219       0.07396291 </v>
   <v>       0.00016276       0.05240617       0.00042215 </v>
   <v>      -0.02614982      -0.05519936      -0.03233006 </v>
   <v>       0.09565985      -0.01539094      -0.04167443 </v>
   <v>      -0.02479232       0.03730390      -0.04837581 </v>
   <v>      -0.19358522      -0.08010382       0.07917809 </v>
  </varray>
  <varray name="stress" >
   <v>      -0.68849235      -0.02571679      -0.07714209 </v>
   <v>      -0.02571679      -0.55646038       0.00363300 </v>
   <v>      -0.07714209       0.00363300      -0.63699976 </v>
  </varray>
  <energy>
   <i name="e_fr_energy">   -103.55342174 </i>
   <i name="e_wo_entrp">   -103.55342174 </i>
   <i name="e_0_energy">   -103.55342174 </i>
  </energy>
  <time name="totalsc">   39.70   48.76</time>
 </calculation>
 <calculation>
  <scstep>
   <time name="dav">    2.39    2.97</time>
   <time name="total">    4.11    4.84</time>
   <energy>
    <i name="alphaZ">      2.15216506 </i>
    <i name="ewald">   2573.92049591 </i>
    <i name="hartreedc">  -3707.23262312 </i>
    <i name="XCdc">    140.54869690 </i>
    <i name="pawpsdc">   3448.15562799 </i>
    <i name="pawaedc">  -3454.45821302 </i>
    <i name="eentropy">     -0.00000000 </i>
    <i name="bandstr">   -513.11420255 </i>
    <i name="atom">   1406.67326350 </i>
    <i name="e_fr_energy">   -103.35478932 </i>
    <i name="e_wo_entrp">   -103.35478932 </i>
    <i name="e_0_energy">   -103.35478932 </i>
   </energy>
  </scstep>
  <scstep>
   <time name="diag">    0.29    0.30</time>
   <time name="diis">    1.42    2.46</time>
   <time name="orth">    0.01    0.02</time>
   <time name="total">    3.39    5.03</time>
   <energy>
    <i name="e_fr_energy">   -103.35525346 </i>
    <i name="e_wo_entrp">   -103.35525346 </i>
    <i name="e_0_energy">   -103.35525346 </i>
   </energy>
  </scstep>
  <scstep>
   <time name="diag">    0.57    0.85</time>
   <time name="diis">    1.85    3.08</time>
   <time name="orth">    0.03    0.03</time>
   <time name="total">    4.91    7.15</time>
   <energy>
    <i name="e_fr_energy">   -103.35530691 </i>
    <i name="e_wo_entrp">   -103.35530691 </i>
    <i name="e_0_energy">   -103.35530691 </i>
   </energy>
  </scstep>
  <scstep>
   <time name="diag">    0.29    0.58</time>
   <time name="diis">    1.78    2.12</time>
   <time name="orth">    0.01    0.01</time>
   <time name="total">    3.89    5.66</time>
   <energy>
    <i name="e_fr_energy">   -103.35535133 </i>
    <i name="e_wo_entrp">   -103.35535133 </i>
    <i name="e_0_energy">   -103.35535133 </i>
   </energy>
  </scstep>
  <scstep>
   <time name="diag">    0.44    0.45</time>
   <time name="diis">    1.25    1.31</time>
   <time name="orth">    0.01    0.01</time>
   <time name="total">    3.23    3.68</time>
   <energy>
    <i name="alphaZ">      2.15216506 </i>
    <i name="ewald">   2573.92049591 </i>
    <i name="hartreedc">  -3707.30836514 </i>
    <i name="XCdc">    140.55602486 </i>
    <i name="pawpsdc">   3449.48575052 </i>
    <i name="pawaedc">  -3455.79090828 </i>
    <i name="eentropy">     -0.00000000 </i>
    <i name="bandstr">   -513.04378341 </i>
    <i name="atom">   1406.67326350 </i>
    <i name="e_fr_energy">   -103.35535697 </i>
    <i name="e_wo_entrp">   -103.35535697 </i>
    <i name="e_0_energy">   -103.35535697 </i>
   </energy>
  </scstep>
  <structure>
   <crystal>
    <varray name="basis" >
     <v>      15.40225029       0.00000000       0.00000000 </v>
     <v>       0.00000000      15.40225029       0.00000000 </v>
     <v>       0.00000000       0.00000000      15.40225029 </v>
    </varray>
    <i name="volume">   3653.86527022 </i>
    <varray name="rec_basis" >
     <v>       0.06492558       0.00000000       0.00000000 </v>
     <v>       0.00000000       0.06492558       0.00000000 </v>
     <v>       0.00000000       0.00000000       0.06492558 </v>
    </varray>
   </crystal>
   <varray name="positions" >
    <v>       0.33457622       0.43967070       0.56411228 </v>
    <v>       0.33176916       0.52658202       0.56772895 </v>
    <v>       0.41490392       0.57553718       0.55383879 </v>
    <v>       0.42132137       0.39783515       0.54969230 </v>
    <v>       0.46988125       0.43958213       0.47258750 </v>
    <v>       0.45857799       0.54008742       0.46998270 </v>
    <v>       0.54106253       0.58317051       0.45268118 </v>
    <v>       0.27619728       0.40003735       0.57050922 </v>
    <v>       0.46212493       0.40791263       0.60786227 </v>
    <v>       0.41648620       0.32731733       0.54040056 </v>
    <v>       0.27115064       0.56201864       0.57718791 </v>
    <v>       0.46048866       0.56539969       0.60831501 </v>
    <v>       0.40451132       0.64573578       0.54799782 </v>
    <v>       0.44616396       0.41273855       0.41095704 </v>
    <v>       0.53898491       0.42301246       0.47745827 </v>
    <v>       0.41495288       0.55654044       0.41575995 </v>
    <v>       0.60746383       0.61668118       0.43860641 </v>
   </varray>
  </structure>
  <varray name="forces" >
   <v>      -0.01277899       0.00905250       0.02192398 </v>
   <v>      -0.02003471       0.00736970       0.01161513 </v>
   <v>      -0.00266442       0.01716958      -0.02279355 </v>
   <v>       0.02720513      -0.00488141      -0.02164008 </v>
   <v>       0.03109392      -0.04258968      -0.01862327 </v>
   <v>       0.02198153       0.00432352      -0.03698847 </v>
   <v>      -0.18594325      -0.07979755       0.00018614 </v>
   <v>      -0.02174836      -0.01461878       0.04531484 </v>
   <v>      -0.04783096      -0.06788292       0.07758740 </v>
   <v>      -0.01463111      -0.01481143      -0.02422492 </v>
   <v>      -0.01778544       0.01065797       0.02685331 </v>
[...]
    <v>       0.27702529       0.40021530       0.57536612 </v>
    <v>       0.46206138       0.40414355       0.60705815 </v>
    <v>       0.41443639       0.32698836       0.53728662 </v>
    <v>       0.27152467       0.56184839       0.58006616 </v>
    <v>       0.45991055       0.56833821       0.60652475 </v>
    <v>       0.40290648       0.64641033       0.54456629 </v>
    <v>       0.44405589       0.41217176       0.41002132 </v>
    <v>       0.53849925       0.42225973       0.47412908 </v>
    <v>       0.41497404       0.55666659       0.41365484 </v>
    <v>       0.60719491       0.61794589       0.43881836 </v>
   </varray>
  </structure>
  <varray name="forces" >
   <v>       0.00110905       0.00016480       0.00473896 </v>
   <v>       0.00131214       0.00028249       0.00319351 </v>
   <v>      -0.00239661       0.00417680      -0.00544090 </v>
   <v>      -0.00233049      -0.00426542      -0.00396833 </v>
   <v>       0.00207834      -0.00072298      -0.00011427 </v>
   <v>       0.00241836       0.00095272      -0.00168515 </v>
   <v>      -0.00860569      -0.00445921       0.00520822 </v>
   <v>       0.00209497       0.00144271       0.01279578 </v>
   <v>      -0.00050229      -0.01311116      -0.00237363 </v>
   <v>      -0.00788623      -0.00078150      -0.01011060 </v>
   <v>       0.00244262      -0.00035165       0.00979293 </v>
   <v>      -0.00040228       0.01194632      -0.00347639 </v>
   <v>      -0.00642423       0.00086197      -0.01179590 </v>
   <v>       0.00535829      -0.00056110      -0.00170558 </v>
   <v>       0.00113079       0.00011954       0.00310462 </v>
   <v>       0.00363793      -0.00173152      -0.00394469 </v>
   <v>       0.00696533       0.00603721       0.00578143 </v>
  </varray>
  <varray name="stress" >
   <v>      -0.83847571       0.00860495      -0.00112534 </v>
   <v>       0.00860495      -0.81577025       0.00010175 </v>
   <v>      -0.00112534       0.00010176      -0.86955967 </v>
  </varray>
  <energy>
   <i name="e_fr_energy">   -103.56724315 </i>
   <i name="e_wo_entrp">   -103.56724315 </i>
   <i name="e_0_energy">   -103.56724315 </i>
  </energy>
  <time name="totalsc">   22.22   28.70</time>
 </calculation>
 <calculation>
  <scstep>
   <time name="dav">    1.40    2.37</time>
   <time name="total">    3.46    4.90</time>
   <energy>
    <i name="alphaZ">      2.15216506 </i>
    <i name="ewald">   2561.44388200 </i>
    <i name="hartreedc">  -3695.32790969 </i>
    <i name="XCdc">    140.44836184 </i>
    <i name="pawpsdc">   3432.15738784 </i>
    <i name="pawaedc">  -3438.45352517 </i>
    <i name="eentropy">     -0.00000000 </i>
    <i name="bandstr">   -512.46195194 </i>
    <i name="atom">   1406.67326350 </i>
    <i name="e_fr_energy">   -103.36832656 </i>
    <i name="e_wo_entrp">   -103.36832656 </i>
    <i name="e_0_energy">   -103.36832656 </i>
   </energy>
  </scstep>
  <scstep>
   <time name="diag">    0.34    0.68</time>
   <time name="diis">    1.14    2.31</time>
   <time name="orth">    0.01    0.02</time>
   <time name="total">    3.80    6.95</time>
   <energy>
    <i name="e_fr_energy">   -103.36833307 </i>
    <i name="e_wo_entrp">   -103.36833307 </i>
    <i name="e_0_energy">   -103.36833307 </i>
   </energy>
  </scstep>
  <scstep>
   <time name="diag">    0.20    0.27</time>
   <time name="diis">    0.78    0.82</time>
   <time name="orth">    0.00    0.00</time>
   <time name="total">    2.87    3.18</time>
   <energy>
    <i name="alphaZ">      2.15216506 </i>
    <i name="ewald">   2561.44388200 </i>
    <i name="hartreedc">  -3695.31580144 </i>
    <i name="XCdc">    140.44792014 </i>
    <i name="pawpsdc">   3432.01557741 </i>
    <i name="pawaedc">  -3438.31150007 </i>
    <i name="eentropy">     -0.00000000 </i>
    <i name="bandstr">   -512.47384207 </i>
    <i name="atom">   1406.67326350 </i>
    <i name="e_fr_energy">   -103.36833546 </i>
    <i name="e_wo_entrp">   -103.36833546 </i>
    <i name="e_0_energy">   -103.36833546 </i>
   </energy>
  </scstep>
  <structure>
   <crystal>
    <varray name="basis" >
     <v>      15.40225029       0.00000000       0.00000000 </v>
     <v>       0.00000000      15.40225029       0.00000000 </v>
     <v>       0.00000000       0.00000000      15.40225029 </v>
    </varray>
    <i name="volume">   3653.86527022 </i>
    <varray name="rec_basis" >
     <v>       0.06492558       0.00000000       0.00000000 </v>
     <v>       0.00000000       0.06492558       0.00000000 </v>
     <v>       0.00000000       0.00000000       0.06492558 </v>
    </varray>
   </crystal>
   <varray name="positions" >
    <v>       0.33500904       0.43980522       0.56534275 </v>
    <v>       0.33194392       0.52674452       0.56803669 </v>
    <v>       0.41428669       0.57640858       0.55166155 </v>
    <v>       0.42109274       0.39712213       0.54844690 </v>
    <v>       0.46925703       0.43921373       0.47107612 </v>
    <v>       0.45828680       0.54002854       0.46818048 </v>
    <v>       0.54084565       0.58344621       0.45144164 </v>
    <v>       0.27703646       0.40022593       0.57544941 </v>
    <v>       0.46205361       0.40405485       0.60704513 </v>
    <v>       0.41438181       0.32697993       0.53722206 </v>
    <v>       0.27153864       0.56184549       0.58012950 </v>
    <v>       0.45990389       0.56841636       0.60650259 </v>
    <v>       0.40286341       0.64641753       0.54449009 </v>
    <v>       0.44409708       0.41216733       0.41001312 </v>
    <v>       0.53851000       0.42226005       0.47415719 </v>
    <v>       0.41500037       0.55665262       0.41363102 </v>
    <v>       0.60720760       0.61797097       0.43887217 </v>
   </varray>
  </structure>
  <varray name="forces" >
   <v>       0.00149374       0.00079065       0.00439536 </v>
   <v>       0.00146690      -0.00007263       0.00282139 </v>
   <v>      -0.00263772       0.00355992      -0.00506992 </v>
   <v>      -0.00227078      -0.00379670      -0.00372451 </v>
   <v>       0.00193830      -0.00063886       0.00036752 </v>
   <v>      -0.00036831      -0.00118015      -0.00135331 </v>
   <v>       0.01496670       0.00767339       0.00048010 </v>
   <v>       0.00168733       0.00114913       0.01260086 </v>
   <v>      -0.00079847      -0.01288647      -0.00256207 </v>
   <v>      -0.00789273      -0.00135408      -0.01000719 </v>
   <v>       0.00210658      -0.00031194       0.00983905 </v>
   <v>      -0.00073262       0.01184899      -0.00355907 </v>
   <v>      -0.00655881       0.00155195      -0.01132167 </v>
   <v>       0.00502257      -0.00037842      -0.00140787 </v>
   <v>       0.00125845       0.00009180       0.00350187 </v>
   <v>       0.00340256      -0.00187408      -0.00349994 </v>
   <v>      -0.01208368      -0.00417248       0.00849942 </v>
  </varray>
  <varray name="stress" >
   <v>      -0.84581363       0.00472098       0.00057547 </v>
   <v>       0.00472098      -0.81819239       0.00114976 </v>
   <v>       0.00057547       0.00114976      -0.87035943 </v>
  </varray>
  <energy>
   <i name="e_fr_energy">   -103.56737165 </i>
   <i name="e_wo_entrp">   -103.56737165 </i>
   <i name="e_0_energy">   -103.56737165 </i>
  </energy>
  <time name="totalsc">   18.25   26.34</time>
 </calculation>
 <calculation>
  <scstep>
   <time name="dav">    2.64    2.77</time>
   <time name="total">    4.04    4.22</time>
   <energy>
    <i name="alphaZ">      2.15216506 </i>
    <i name="ewald">   2561.53211901 </i>
    <i name="hartreedc">  -3695.39386710 </i>
    <i name="XCdc">    140.44846790 </i>
    <i name="pawpsdc">   3431.94185378 </i>
    <i name="pawaedc">  -3438.23774684 </i>
    <i name="eentropy">     -0.00000000 </i>
    <i name="bandstr">   -512.48451268 </i>
    <i name="atom">   1406.67326350 </i>
    <i name="e_fr_energy">   -103.36825737 </i>
    <i name="e_wo_entrp">   -103.36825737 </i>
    <i name="e_0_energy">   -103.36825737 </i>
   </energy>
  </scstep>
  <scstep>
   <time name="diag">    0.33    0.34</time>
   <time name="diis">    1.73    1.78</time>
   <time name="orth">    0.02    0.02</time>
   <time name="total">    3.76    3.89</time>
   <energy>
    <i name="alphaZ">      2.15216506 </i>
    <i name="ewald">   2561.53211901 </i>
    <i name="hartreedc">  -3695.39894848 </i>
    <i name="XCdc">    140.44870346 </i>
    <i name="pawpsdc">   3431.90864698 </i>
    <i name="pawaedc">  -3438.20459225 </i>
    <i name="eentropy">     -0.00000000 </i>
    <i name="bandstr">   -512.47961618 </i>
    <i name="atom">   1406.67326350 </i>
    <i name="e_fr_energy">   -103.36825891 </i>
    <i name="e_wo_entrp">   -103.36825891 </i>
    <i name="e_0_energy">   -103.36825891 </i>
   </energy>
  </scstep>
  <structure>
   <crystal>
    <varray name="basis" >
     <v>      15.40225029       0.00000000       0.00000000 </v>
     <v>       0.00000000      15.40225029       0.00000000 </v>
     <v>       0.00000000       0.00000000      15.40225029 </v>
    </varray>
    <i name="volume">   3653.86527022 </i>
    <varray name="rec_basis" >
     <v>       0.06492558       0.00000000       0.00000000 </v>
     <v>       0.00000000       0.06492558       0.00000000 </v>
     <v>       0.00000000       0.00000000       0.06492558 </v>
    </varray>
   </crystal>
   <varray name="positions" >
    <v>       0.33500615       0.43980400       0.56533094 </v>
    <v>       0.33194024       0.52674318       0.56802867 </v>
    <v>       0.41429189       0.57640007       0.55167519 </v>
    <v>       0.42109921       0.39713180       0.54845557 </v>
    <v>       0.46925171       0.43921562       0.47107399 </v>
    <v>       0.45828220       0.54003061       0.46818357 </v>
    <v>       0.54084396       0.58344542       0.45143156 </v>
    <v>       0.27703081       0.40022032       0.57540668 </v>
    <v>       0.46205780       0.40410046       0.60705175 </v>
    <v>       0.41440999       0.32698441       0.53725501 </v>
    <v>       0.27153156       0.56184705       0.58009709 </v>
    <v>       0.45990754       0.56837636       0.60651406 </v>
    <v>       0.40288555       0.64641386       0.54452918 </v>
    <v>       0.44407581       0.41216967       0.41001725 </v>
    <v>       0.53850448       0.42225998       0.47414266 </v>
    <v>       0.41498682       0.55665991       0.41364326 </v>
    <v>       0.60719970       0.61795714       0.43884419 </v>
   </varray>
  </structure>
  <varray name="forces" >
   <v>       0.00156694       0.00129035       0.00347634 </v>
   <v>       0.00174405       0.00023100       0.00198858 </v>
   <v>      -0.00225501       0.00291674      -0.00577627 </v>
   <v>      -0.00237685      -0.00355368      -0.00367644 </v>
   <v>       0.00190186      -0.00074773       0.00060082 </v>
   <v>       0.00146671      -0.00181563      -0.00222109 </v>
   <v>       0.00113460       0.00082915       0.00384100 </v>
   <v>       0.00167815       0.00157225       0.01348435 </v>
   <v>      -0.00133541      -0.01426897      -0.00329935 </v>
   <v>      -0.00905506      -0.00201873      -0.01092756 </v>
   <v>       0.00209707      -0.00056035       0.01036248 </v>
   <v>      -0.00138516       0.01280734      -0.00458178 </v>
   <v>      -0.00736591       0.00192003      -0.01259168 </v>
   <v>       0.00563407      -0.00044706      -0.00138359 </v>
   <v>       0.00127703      -0.00013271       0.00398734 </v>
   <v>       0.00362391      -0.00246330      -0.00422442 </v>
   <v>       0.00164902       0.00444131       0.01094126 </v>
  </varray>
  <varray name="stress" >
   <v>      -0.84094524       0.00720308      -0.00130366 </v>
   <v>       0.00720308      -0.81368028       0.00055027 </v>
   <v>      -0.00130366       0.00055027      -0.86905932 </v>
  </varray>
  <energy>
   <i name="e_fr_energy">   -103.56730727 </i>
   <i name="e_wo_entrp">   -103.56730727 </i>
   <i name="e_0_energy">   -103.56730727 </i>
  </energy>
  <time name="totalsc">   17.85   21.71</time>
 </calculation>
 <calculation>
  <scstep>
   <time name="dav">    1.85    2.96</time>
   <time name="total">    3.16    4.82</time>
   <energy>
    <i name="alphaZ">      2.15216506 </i>
    <i name="ewald">   2561.50708475 </i>
    <i name="hartreedc">  -3695.37656923 </i>
    <i name="XCdc">    140.44890956 </i>
    <i name="pawpsdc">   3431.91067126 </i>
    <i name="pawaedc">  -3438.20668752 </i>
    <i name="eentropy">     -0.00000000 </i>
    <i name="bandstr">   -512.47713604 </i>
    <i name="atom">   1406.67326350 </i>
    <i name="e_fr_energy">   -103.36829866 </i>
    <i name="e_wo_entrp">   -103.36829866 </i>
    <i name="e_0_energy">   -103.36829866 </i>
   </energy>
  </scstep>
  <scstep>
   <time name="diag">    0.15    0.16</time>
   <time name="diis">    0.52    0.54</time>
   <time name="orth">    0.00    0.00</time>
   <time name="total">    2.63    3.39</time>
   <energy>
    <i name="alphaZ">      2.15216506 </i>
    <i name="ewald">   2561.50708475 </i>
    <i name="hartreedc">  -3695.37790116 </i>
    <i name="XCdc">    140.44902412 </i>
    <i name="pawpsdc">   3431.94989168 </i>
    <i name="pawaedc">  -3438.24594415 </i>
    <i name="eentropy">     -0.00000000 </i>
    <i name="bandstr">   -512.47588320 </i>
    <i name="atom">   1406.67326350 </i>
    <i name="e_fr_energy">   -103.36829939 </i>
    <i name="e_wo_entrp">   -103.36829939 </i>
    <i name="e_0_energy">   -103.36829939 </i>
   </energy>
  </scstep>
  <structure>
   <crystal>
    <varray name="basis" >
     <v>      15.40225029       0.00000000       0.00000000 </v>
     <v>       0.00000000      15.40225029       0.00000000 </v>
     <v>       0.00000000       0.00000000      15.40225029 </v>
    </varray>
    <i name="volume">   3653.86527022 </i>
    <varray name="rec_basis" >
     <v>       0.06492558       0.00000000       0.00000000 </v>
     <v>       0.00000000       0.06492558       0.00000000 </v>
     <v>       0.00000000       0.00000000       0.06492558 </v>
    </varray>
   </crystal>
   <varray name="positions" >
    <v>       0.33500803       0.43980510       0.56533707 </v>
    <v>       0.33194245       0.52674369       0.56803264 </v>
    <v>       0.41428875       0.57640474       0.55166739 </v>
    <v>       0.42109567       0.39712643       0.54845052 </v>
    <v>       0.46925467       0.43921457       0.47107507 </v>
    <v>       0.45828427       0.54002893       0.46818142 </v>
    <v>       0.54084803       0.58344758       0.45143659 </v>
    <v>       0.27703365       0.40022302       0.57542858 </v>
    <v>       0.46205570       0.40407719       0.60704778 </v>
    <v>       0.41439554       0.32698184       0.53723784 </v>
    <v>       0.27153513       0.56184626       0.58011381 </v>
    <v>       0.45990562       0.56839698       0.60650778 </v>
    <v>       0.40287403       0.64641616       0.54450908 </v>
    <v>       0.44408614       0.41216864       0.41001510 </v>
    <v>       0.53850711       0.42225998       0.47414984 </v>
    <v>       0.41499344       0.55665614       0.41363688 </v>
    <v>       0.60720054       0.61796265       0.43885960 </v>
   </varray>
  </structure>
  <varray name="forces" >
   <v>       0.00111651       0.00022237       0.00373234 </v>
   <v>       0.00119740       0.00077184       0.00236213 </v>
   <v>      -0.00162697       0.00255816      -0.00468945 </v>
   <v>      -0.00196342      -0.00286612      -0.00301541 </v>
   <v>       0.00128765      -0.00049899       0.00024269 </v>
   <v>       0.00162105      -0.00028131      -0.00152354 </v>
   <v>      -0.00497701      -0.00286506       0.00339611 </v>
   <v>       0.00205659       0.00167296       0.01320584 </v>
   <v>      -0.00095161      -0.01348434      -0.00263160 </v>
   <v>      -0.00845192      -0.00144903      -0.01030954 </v>
   <v>       0.00240344      -0.00051706       0.01023755 </v>
   <v>      -0.00105038       0.01235002      -0.00396120 </v>
   <v>      -0.00686437       0.00149972      -0.01186723 </v>
   <v>       0.00537379      -0.00037986      -0.00133880 </v>
   <v>       0.00145659       0.00001005       0.00378704 </v>
   <v>       0.00366730      -0.00203644      -0.00380603 </v>
   <v>       0.00570535       0.00529310       0.00617911 </v>
  </varray>
  <varray name="stress" >
   <v>      -0.83915028       0.00814487      -0.00076383 </v>
   <v>       0.00814487      -0.81501134       0.00029612 </v>
   <v>      -0.00076383       0.00029613      -0.87020165 </v>
  </varray>
  <energy>
   <i name="e_fr_energy">   -103.56734225 </i>
   <i name="e_wo_entrp">   -103.56734225 </i>
   <i name="e_0_energy">   -103.56734225 </i>
  </energy>
  <time name="totalsc">   13.44   18.22</time>
  <eigenvalues>
   <array>
    <dimension dim="1">band</dimension>
    <dimension dim="2">kpoint</dimension>
    <dimension dim="3">spin</dimension>
    <field>eigene</field>
    <field>occ</field>
    <set>
     <set comment="spin 1">
      <set comment="kpoint 1">
       <r>  -22.2541    1.0000 </r>
       <r>  -21.1827    1.0000 </r>
       <r>  -19.1014    1.0000 </r>
       <r>  -18.6391    1.0000 </r>
       <r>  -15.9586    1.0000 </r>
       <r>  -15.3916    1.0000 </r>
       <r>  -12.9929    1.0000 </r>
       <r>  -12.7231    1.0000 </r>
       <r>  -12.4539    1.0000 </r>
       <r>  -10.7807    1.0000 </r>
       <r>  -10.5654    1.0000 </r>
       <r>  -10.2493    1.0000 </r>
       <r>   -9.8139    1.0000 </r>
       <r>   -9.5663    1.0000 </r>
       <r>   -8.7449    1.0000 </r>
       <r>   -8.5399    1.0000 </r>
       <r>   -8.2537    1.0000 </r>
       <r>   -7.7556    1.0000 </r>
       <r>   -7.5549    1.0000 </r>
       <r>   -7.5162    1.0000 </r>
       <r>   -6.1997    1.0000 </r>
       <r>   -1.0615    0.0000 </r>
       <r>   -0.6876    0.0000 </r>
       <r>   -0.2089    0.0000 </r>
       <r>   -0.1826    0.0000 </r>
       <r>   -0.0139    0.0000 </r>
       <r>    0.1228    0.0000 </r>
       <r>    0.1948    0.0000 </r>
       <r>    0.3818    0.0000 </r>
       <r>    0.4967    0.0000 </r>
      </set>
     </set>
    </set>
   </array>
  </eigenvalues>
  <separator name="orbital magnetization" >
   <v name="MAGDIPOLOUT">      0.00000000      0.00000000      0.00000000</v>
  </separator>
 </calculation>
 <structure name="finalpos" >
  <crystal>
   <varray name="basis" >
    <v>      15.40225029       0.00000000       0.00000000 </v>
    <v>       0.00000000      15.40225029       0.00000000 </v>
    <v>       0.00000000       0.00000000      15.40225029 </v>
   </varray>
   <i name="volume">   3653.86527022 </i>
   <varray name="rec_basis" >
    <v>       0.06492558       0.00000000       0.00000000 </v>
    <v>       0.00000000       0.06492558       0.00000000 </v>
    <v>       0.00000000       0.00000000       0.06492558 </v>
   </varray>
  </crystal>
  <varray name="positions" >
   <v>       0.33500803       0.43980510       0.56533707 </v>
   <v>       0.33194245       0.52674369       0.56803264 </v>
   <v>       0.41428875       0.57640474       0.55166739 </v>
   <v>       0.42109567       0.39712643       0.54845052 </v>
   <v>       0.46925467       0.43921457       0.47107507 </v>
   <v>       0.45828427       0.54002893       0.46818142 </v>
   <v>       0.54084803       0.58344758       0.45143659 </v>
   <v>       0.27703365       0.40022302       0.57542858 </v>
   <v>       0.46205570       0.40407719       0.60704778 </v>
   <v>       0.41439554       0.32698184       0.53723784 </v>
   <v>       0.27153513       0.56184626       0.58011381 </v>
   <v>       0.45990562       0.56839698       0.60650778 </v>
   <v>       0.40287403       0.64641616       0.54450908 </v>
   <v>       0.44408614       0.41216864       0.41001510 </v>
   <v>       0.53850711       0.42225998       0.47414984 </v>
   <v>       0.41499344       0.55665614       0.41363688 </v>
   <v>       0.60720054       0.61796265       0.43885960 </v>
  </varray>
 </structure>
</modeling>
