unknown system                          
           1
    15.402250    0.000000    0.000000
     0.000000   15.402250    0.000000
     0.000000    0.000000   15.402250
   C    H    N 
     7     9     1
Direct configuration=     1
   0.33454951  0.43963786  0.56400203
   0.33212456  0.52643492  0.56781525
   0.41474472  0.57540069  0.55497844
   0.42058382  0.39761510  0.55051049
   0.47192147  0.44018295  0.47543507
   0.46021670  0.53990610  0.47264481
   0.54202710  0.58311650  0.45547523
   0.27574686  0.40064791  0.56849954
   0.46127224  0.40774711  0.60803614
   0.41569096  0.32742770  0.54114545
   0.27148083  0.56174627  0.57639824
   0.46017111  0.56515758  0.60873298
   0.40426479  0.64542354  0.54927916
   0.45176349  0.41327843  0.41301675
   0.54042805  0.42389284  0.48286345
   0.41716090  0.55541125  0.41826784
   0.60814699  0.61699102  0.44093218
Direct configuration=     2
   0.33450326  0.43967605  0.56403168
   0.33202520  0.52644002  0.56784904
   0.41479338  0.57544802  0.55483765
   0.42076585  0.39767713  0.55031002
   0.47164766  0.44001870  0.47521236
   0.45998560  0.53990222  0.47237056
   0.54193896  0.58311645  0.45523368
   0.27575660  0.40059170  0.56864494
   0.46141659  0.40781431  0.60807416
   0.41575205  0.32735082  0.54110296
   0.27143690  0.56176510  0.57642647
   0.46029494  0.56514402  0.60877424
   0.40425360  0.64550545  0.54920802
   0.45122350  0.41321603  0.41280809
   0.54035157  0.42377719  0.48240913
   0.41691162  0.55553765  0.41799067
   0.60817537  0.61702251  0.44071733
Direct configuration=     3
   0.33448904  0.43968469  0.56405538
   0.33194706  0.52647884  0.56787991
   0.41485179  0.57548262  0.55468649
   0.42094376  0.39771702  0.55013495
   0.47135434  0.43984145  0.47486149
   0.45970025  0.53990715  0.47200288
   0.54193091  0.58317339  0.45485848
   0.27577334  0.40050845  0.56885795
   0.46158938  0.40789585  0.60808120
   0.41584632  0.32729018  0.54104158
   0.27135427  0.56180559  0.57647928
   0.46042505  0.56513883  0.60877982
   0.40424675  0.64560708  0.54909820
   0.45046253  0.41312418  0.41251228
   0.54018832  0.42362876  0.48175039
   0.41656321  0.55571085  0.41760219
   0.60806608  0.61698805  0.44044642
Direct configuration=     4
   0.33449334  0.43968834  0.56406465
   0.33191772  0.52649640  0.56789073
   0.41488351  0.57549997  0.55460432
   0.42102396  0.39772653  0.55006531
   0.47119561  0.43976222  0.47463210
   0.45956376  0.53992562  0.47177936
   0.54177586  0.58313172  0.45465791
   0.27578960  0.40045770  0.56899328
   0.46168150  0.40793744  0.60806868
   0.41590744  0.32726974  0.54100201
   0.27130255  0.56183354  0.57651868
   0.46048529  0.56514232  0.60876300
   0.40424975  0.64565479  0.54902522
   0.45000188  0.41306868  0.41233537
   0.54007555  0.42354322  0.48134000
   0.41635988  0.55581225  0.41737418
   0.60810678  0.61702004  0.44025584
Direct configuration=     5
   0.33450749  0.43968643  0.56406733
   0.33190950  0.52650729  0.56788951
   0.41490033  0.57551107  0.55454674
   0.42106057  0.39772348  0.55004304
   0.47107997  0.43972537  0.47442767
   0.45945934  0.53994185  0.47159959
   0.54174993  0.58315137  0.45446331
   0.27581312  0.40041692  0.56911400
   0.46174251  0.40796051  0.60804175
   0.41596216  0.32726944  0.54096460
   0.27126348  0.56185787  0.57656107
   0.46051237  0.56515389  0.60872651
   0.40426181  0.64567621  0.54895510
   0.44962342  0.41302452  0.41219306
   0.53996922  0.42347848  0.48098678
   0.41620288  0.55589020  0.41719805
   0.60802561  0.61698514  0.44011792
Direct configuration=     6
   0.33453902  0.43966895  0.56406859
   0.33189626  0.52653216  0.56785990
   0.41491396  0.57552483  0.55440952
   0.42109921  0.39772561  0.55001804
   0.47081552  0.43970614  0.47396607
   0.45927341  0.53999593  0.47120297
   0.54152272  0.58311863  0.45405270
   0.27590109  0.40033251  0.56941749
   0.46184411  0.40797258  0.60797149
   0.41609152  0.32729024  0.54085691
   0.27121506  0.56190182  0.57668791
   0.46051889  0.56520447  0.60861173
   0.40431717  0.64568087  0.54875875
   0.44879238  0.41293880  0.41188836
   0.53972468  0.42335300  0.48016185
   0.41589398  0.55604756  0.41684596
   0.60793488  0.61694215  0.43976779
Direct configuration=     7
   0.33456754  0.43967219  0.56408149
   0.33184124  0.52655409  0.56779602
   0.41492069  0.57553617  0.55412992
   0.42120367  0.39777279  0.54988407
   0.47031806  0.43965225  0.47321451
   0.45890031  0.54005364  0.47053969
   0.54134639  0.58318033  0.45330632
   0.27605584  0.40017916  0.56997255
   0.46201072  0.40796413  0.60790062
   0.41630864  0.32730551  0.54063856
   0.27116320  0.56196869  0.57693223
   0.46052131  0.56530041  0.60844862
   0.40441999  0.64570039  0.54838139
   0.44737755  0.41281421  0.41137367
   0.53932772  0.42315575  0.47873465
   0.41538014  0.55631258  0.41625467
   0.60761350  0.61677302  0.43918061
Direct configuration=     8
   0.33457256  0.43967050  0.56409167
   0.33181350  0.52656557  0.56776447
   0.41491332  0.57553394  0.55400905
   0.42124519  0.39779877  0.54981256
   0.47013383  0.43963505  0.47294707
   0.45878699  0.54008009  0.47030115
   0.54107240  0.58309948  0.45307456
   0.27611983  0.40012075  0.57019894
   0.46205686  0.40794050  0.60788267
   0.41638592  0.32731364  0.54053914
   0.27116094  0.56198895  0.57704091
   0.46050317  0.56534449  0.60838836
   0.40446289  0.64570790  0.54821859
   0.44686637  0.41278113  0.41119668
   0.53918141  0.42309599  0.47819493
   0.41520476  0.55640687  0.41604956
   0.60767486  0.61679641  0.43891174
Direct configuration=     9
   0.33457622  0.43967070  0.56411228
   0.33176916  0.52658202  0.56772895
   0.41490392  0.57553718  0.55383879
   0.42132137  0.39783515  0.54969230
   0.46988125  0.43958213  0.47258750
   0.45857799  0.54008742  0.46998270
   0.54106253  0.58317051  0.45268118
   0.27619728  0.40003735  0.57050922
   0.46212493  0.40791263  0.60786227
   0.41648620  0.32731733  0.54040056
   0.27115064  0.56201864  0.57718791
   0.46048866  0.56539969  0.60831501
   0.40451132  0.64573578  0.54799782
   0.44616396  0.41273855  0.41095704
   0.53898491  0.42301246  0.47745827
   0.41495288  0.55654044  0.41575995
   0.60746383  0.61668118  0.43860641
Direct configuration=    10
   0.33457958  0.43967202  0.56413161
   0.33174597  0.52658554  0.56770900
   0.41489123  0.57554193  0.55373673
   0.42136108  0.39785115  0.54961570
   0.46975929  0.43955477  0.47241279
   0.45849431  0.54009252  0.46982966
   0.54090929  0.58312849  0.45251204
   0.27623804  0.39999262  0.57068682
   0.46214377  0.40788203  0.60784563
   0.41652938  0.32732357  0.54031224
   0.27115203  0.56203263  0.57727986
   0.46046280  0.56543341  0.60826869
   0.40453232  0.64575563  0.54786698
   0.44581940  0.41272987  0.41085281
   0.53888525  0.42297996  0.47707222
   0.41483464  0.55660572  0.41562552
   0.60748995  0.61668660  0.43840995
Direct configuration=    11
   0.33458840  0.43966824  0.56415725
   0.33171793  0.52659334  0.56768240
   0.41487262  0.57555232  0.55359954
   0.42140830  0.39786896  0.54952246
   0.46958862  0.43952191  0.47215712
   0.45835989  0.54009590  0.46960814
   0.54087148  0.58315824  0.45222955
   0.27629785  0.39993054  0.57093904
   0.46217099  0.40783978  0.60781448
   0.41659110  0.32733360  0.54018865
   0.27114937  0.56205340  0.57740976
   0.46042430  0.56548244  0.60819526
   0.40456079  0.64578046  0.54768474
   0.44532159  0.41271139  0.41069807
   0.53874474  0.42292863  0.47651844
   0.41466286  0.55669933  0.41543201
   0.60736568  0.61661462  0.43816452
Direct configuration=    12
   0.33460390  0.43966039  0.56419820
   0.33168694  0.52660025  0.56765164
   0.41484029  0.57557254  0.55341985
   0.42145741  0.39788366  0.54940238
   0.46939074  0.43948814  0.47185298
   0.45821686  0.54010365  0.46934497
   0.54074961  0.58314945  0.45189972
   0.27637439  0.39985573  0.57126768
   0.46218792  0.40777047  0.60776103
   0.41665403  0.32734875  0.54001954
   0.27114994  0.56207615  0.57758641
   0.46035542  0.56554998  0.60808697
   0.40458594  0.64581609  0.54744747
   0.44472745  0.41269718  0.41052524
   0.53857905  0.42287110  0.47583066
   0.41446431  0.55681014  0.41521178
   0.60728460  0.61656056  0.43783824
Direct configuration=    13
   0.33461656  0.43965542  0.56422513
   0.33167535  0.52660171  0.56763868
   0.41481788  0.57558885  0.55331892
   0.42147193  0.39788525  0.54934120
   0.46929246  0.43948066  0.47169516
   0.45816234  0.54011691  0.46920670
   0.54059871  0.58309571  0.45174222
   0.27641856  0.39981974  0.57145168
   0.46219030  0.40772452  0.60771833
   0.41667718  0.32735652  0.53992217
   0.27115076  0.56208472  0.57768851
   0.46030729  0.56559121  0.60801295
   0.40458945  0.64583685  0.54731899
   0.44442109  0.41268943  0.41044102
   0.53849657  0.42283865  0.47546115
   0.41436641  0.55686649  0.41510512
   0.60731885  0.61657159  0.43764570
Direct configuration=    14
   0.33462981  0.43965004  0.56425729
   0.33165916  0.52660497  0.56762218
   0.41479007  0.57560742  0.55319728
   0.42149349  0.39789055  0.54926427
   0.46916926  0.43946584  0.47150014
   0.45806738  0.54012033  0.46903894
   0.54061820  0.58313506  0.45150460
   0.27647185  0.39977530  0.57167514
   0.46219626  0.40766985  0.60767145
   0.41670739  0.32736456  0.53980524
   0.27115190  0.56209514  0.57781122
   0.46025285  0.56564124  0.60792691
   0.40459532  0.64586233  0.54716371
   0.44404214  0.41267816  0.41033474
   0.53839458  0.42279774  0.47500836
   0.41424343  0.55693653  0.41497073
   0.60718357  0.61649688  0.43744879
Direct configuration=    15
   0.33464163  0.43964651  0.56428591
   0.33165322  0.52660607  0.56761726
   0.41476503  0.57562593  0.55311200
   0.42149504  0.39788750  0.54921344
   0.46910325  0.43946604  0.47138870
   0.45803386  0.54013233  0.46894040
   0.54052658  0.58310013  0.45138170
   0.27650884  0.39975479  0.57182548
   0.46219278  0.40762211  0.60762566
   0.41670843  0.32736706  0.53972325
   0.27115543  0.56209408  0.57789781
   0.46020671  0.56568038  0.60785325
   0.40458223  0.64588276  0.54706672
   0.44382760  0.41267121  0.41028294
   0.53833903  0.42276966  0.47472802
   0.41418054  0.55697584  0.41490318
   0.60719786  0.61650210  0.43730503
Direct configuration=    16
   0.33465346  0.43964401  0.56431675
   0.33164574  0.52660767  0.56761117
   0.41473779  0.57564591  0.55301947
   0.42149978  0.39788555  0.54915612
   0.46902779  0.43946140  0.47126392
   0.45798210  0.54013894  0.46883166
   0.54052846  0.58311557  0.45122270
   0.27654813  0.39973165  0.57199031
   0.46219161  0.40757008  0.60757965
   0.41671014  0.32736881  0.53963472
   0.27115837  0.56209318  0.57799166
   0.46015989  0.56572357  0.60777579
   0.40456806  0.64590581  0.54696185
   0.44358764  0.41266112  0.41022274
   0.53827692  0.42273705  0.47441850
   0.41410824  0.55702053  0.41482396
   0.60712638  0.61646537  0.43716665
Direct configuration=    17
   0.33466828  0.43964322  0.56435642
   0.33164085  0.52660952  0.56760941
   0.41470320  0.57567324  0.55291446
   0.42149786  0.39787877  0.54909109
   0.46895740  0.43945975  0.47114178
   0.45794406  0.54015147  0.46872229
   0.54048086  0.58310288  0.45106924
   0.27659079  0.39971464  0.57217276
   0.46218720  0.40750191  0.60752078
   0.41669340  0.32736688  0.53953553
   0.27116297  0.56208463  0.57809781
   0.46010506  0.56577747  0.60767972
   0.40453558  0.64593575  0.54685513
   0.44335571  0.41264696  0.41017030
   0.53821867  0.42269806  0.47409754
   0.41404328  0.55706479  0.41475038
   0.60710459  0.61645785  0.43701463
Direct configuration=    18
   0.33467990  0.43964465  0.56438750
   0.33163918  0.52661186  0.56761073
   0.41467716  0.57569625  0.55283888
   0.42149497  0.39787142  0.54904374
   0.46891572  0.43945745  0.47106433
   0.45792409  0.54016093  0.46865037
   0.54044455  0.58309183  0.45096993
   0.27661878  0.39970897  0.57230255
   0.46218459  0.40744461  0.60747708
   0.41666658  0.32736215  0.53946559
   0.27116561  0.56207316  0.57817366
   0.46006842  0.56582125  0.60760686
   0.40449903  0.64596090  0.54678801
   0.44321271  0.41263117  0.41013986
   0.53818330  0.42266615  0.47388500
   0.41400556  0.55709370  0.41470222
   0.60710442  0.61646583  0.43691727
Direct configuration=    19
   0.33469192  0.43964635  0.56441882
   0.33163803  0.52661443  0.56761222
   0.41465106  0.57572013  0.55276460
   0.42149232  0.39786355  0.54899745
   0.46887605  0.43945384  0.47098864
   0.45789909  0.54016700  0.46857984
   0.54046386  0.58310918  0.45086171
   0.27664576  0.39970472  0.57243203
   0.46218220  0.40738485  0.60743450
   0.41663648  0.32735710  0.53939631
   0.27116744  0.56206105  0.57824909
   0.46003315  0.56586640  0.60753412
   0.40445994  0.64598668  0.54672325
   0.44307445  0.41261315  0.41011014
   0.53814994  0.42263308  0.47367684
   0.41396907  0.55712208  0.41465365
   0.60705895  0.61645334  0.43683443
Direct configuration=    20
   0.33470626  0.43965020  0.56445438
   0.33163869  0.52661856  0.56761583
   0.41462389  0.57574947  0.55268519
   0.42148882  0.39785145  0.54894886
   0.46884232  0.43944832  0.47091635
   0.45789050  0.54017958  0.46850654
   0.54039164  0.58308180  0.45077681
   0.27667192  0.39970765  0.57257073
   0.46218155  0.40731028  0.60738941
   0.41658787  0.32734921  0.53932365
   0.27116797  0.56204312  0.57832951
   0.46000056  0.56592135  0.60745347
   0.40440422  0.64601792  0.54666334
   0.44294982  0.41258615  0.41008414
   0.53812108  0.42259271  0.47347253
   0.41393914  0.55714982  0.41460275
   0.60710238  0.61649417  0.43674456
Direct configuration=    21
   0.33471941  0.43965361  0.56448687
   0.33163946  0.52662226  0.56761848
   0.41459837  0.57577672  0.55261341
   0.42148579  0.39784048  0.54890535
   0.46881045  0.43944129  0.47084850
   0.45786905  0.54018452  0.46843988
   0.54043410  0.58311233  0.45067579
   0.27669578  0.39971038  0.57269921
   0.46218138  0.40724034  0.60734958
   0.41654288  0.32734213  0.53925667
   0.27116797  0.56202717  0.57840338
   0.45997164  0.56597249  0.60737985
   0.40435340  0.64604638  0.54660769
   0.44283375  0.41256014  0.41005913
   0.53809453  0.42255505  0.47328373
   0.41391070  0.55717515  0.41455374
   0.60704843  0.61648655  0.43668386
Direct configuration=    22
   0.33473515  0.43965938  0.56452284
   0.33164244  0.52662766  0.56762246
   0.41457263  0.57580962  0.55253872
   0.42148192  0.39782451  0.54886238
   0.46878596  0.43943063  0.47078542
   0.45786165  0.54019422  0.46837106
   0.54041711  0.58311584  0.45059647
   0.27671815  0.39972222  0.57283657
   0.46218429  0.40715211  0.60731019
   0.41647598  0.32733228  0.53918704
   0.27116625  0.56200539  0.57848088
   0.45994885  0.56603502  0.60729973
   0.40428479  0.64607981  0.54655754
   0.44273639  0.41252273  0.41003793
   0.53807366  0.42250955  0.47310523
   0.41389110  0.55719807  0.41450004
   0.60705702  0.61652354  0.43663081
Direct configuration=    23
   0.33474853  0.43966521  0.56455335
   0.33164695  0.52663306  0.56762621
   0.41455279  0.57583959  0.55248290
   0.42147690  0.39780685  0.54883327
   0.46877338  0.43941658  0.47074206
   0.45785951  0.54020225  0.46831958
   0.54042032  0.58313068  0.45054545
   0.27673350  0.39973972  0.57294600
   0.46219012  0.40706884  0.60728423
   0.41640673  0.32732294  0.53913308
   0.27116400  0.56198504  0.57854029
   0.45993985  0.56609215  0.60723628
   0.40421980  0.64610771  0.54652368
   0.44268326  0.41248432  0.41002504
   0.53806456  0.42246904  0.47298583
   0.41388612  0.55721146  0.41445399
   0.60705920  0.61656433  0.43661618
Direct configuration=    24
   0.33474831  0.43966642  0.56455050
   0.33164861  0.52663331  0.56762626
   0.41455698  0.57583807  0.55249351
   0.42147670  0.39780576  0.54884204
   0.46878399  0.43941530  0.47075742
   0.45786594  0.54020069  0.46833026
   0.54042752  0.58313570  0.45056760
   0.27672868  0.39974567  0.57293189
   0.46219229  0.40706591  0.60729230
   0.41639884  0.32732190  0.53914148
   0.27116325  0.56198439  0.57853028
   0.45994955  0.56609235  0.60724422
   0.40421725  0.64610586  0.54653438
   0.44271530  0.41248040  0.41003076
   0.53807282  0.42247037  0.47302542
   0.41389774  0.55720461  0.41445705
   0.60706176  0.61657413  0.43664524
Direct configuration=    25
   0.33475113  0.43966858  0.56455431
   0.33165073  0.52663459  0.56762731
   0.41455647  0.57584216  0.55248969
   0.42147617  0.39780227  0.54884257
   0.46878941  0.43941291  0.47076045
   0.45787044  0.54020059  0.46832773
   0.54043149  0.58314057  0.45057384
   0.27672821  0.39975297  0.57294314
   0.46219440  0.40704776  0.60729328
   0.41638032  0.32731939  0.53913721
   0.27116227  0.56198019  0.57853479
   0.45995401  0.56610329  0.60723787
   0.40420350  0.64610973  0.54653532
   0.44272715  0.41247039  0.41003269
   0.53807680  0.42246395  0.47303071
   0.41390494  0.55720229  0.41445083
   0.60706554  0.61658945  0.43666228
Direct configuration=    26
   0.33475389  0.43967103  0.56455778
   0.33165370  0.52663619  0.56762859
   0.41455710  0.57584606  0.55248899
   0.42147513  0.39779789  0.54884587
   0.46879834  0.43940963  0.47076827
   0.45787724  0.54020006  0.46832894
   0.54043996  0.58314824  0.45058750
   0.27672644  0.39976255  0.57295072
   0.46219681  0.40702724  0.60729698
   0.41635825  0.32731671  0.53913499
   0.27116118  0.56197563  0.57853637
   0.45996120  0.56611504  0.60723355
   0.40418849  0.64611273  0.54653911
   0.44274989  0.41245879  0.41003696
   0.53808436  0.42245764  0.47304895
   0.41391646  0.55719753  0.41444523
   0.60706920  0.61660874  0.43669072
Direct configuration=    27
   0.33479477  0.43970698  0.56461923
   0.33169647  0.52665962  0.56764989
   0.41455780  0.57591075  0.55246060
   0.42145659  0.39772962  0.54888122
   0.46891755  0.43935909  0.47086211
   0.45797296  0.54019774  0.46833078
   0.54053879  0.58324694  0.45076450
   0.27670947  0.39989970  0.57309142
   0.46222844  0.40671463  0.60734256
   0.41603512  0.32727829  0.53908457
   0.27114898  0.56190895  0.57857701
   0.46005403  0.56629671  0.60715541
   0.40396749  0.64616069  0.54657464
   0.44304975  0.41229047  0.41009572
   0.53819070  0.42236161  0.47326797
   0.41407987  0.55713476  0.41435619
   0.60713011  0.61689276  0.43708016
Direct configuration=    28
   0.33479106  0.43970341  0.56461623
   0.33169310  0.52665697  0.56765004
   0.41455562  0.57590510  0.55246189
   0.42145561  0.39773427  0.54887647
   0.46890643  0.43936387  0.47085486
   0.45796340  0.54019702  0.46833248
   0.54053402  0.58323893  0.45074836
   0.27671351  0.39988551  0.57308136
   0.46222240  0.40674010  0.60733780
   0.41606697  0.32728199  0.53908453
   0.27115360  0.56191700  0.57857469
   0.46004198  0.56628214  0.60716313
   0.40399226  0.64615434  0.54656323
   0.44302270  0.41231099  0.41009229
   0.53818183  0.42237409  0.47325219
   0.41406982  0.55713863  0.41436588
   0.60711714  0.61686430  0.43704774
Direct configuration=    29
   0.33479493  0.43970662  0.56462316
   0.33169747  0.52665907  0.56765289
   0.41455488  0.57591095  0.55245813
   0.42145254  0.39772721  0.54887899
   0.46891727  0.43935938  0.47086450
   0.45797285  0.54019617  0.46833349
   0.54053988  0.58324596  0.45076619
   0.27671315  0.39989726  0.57309624
   0.46222346  0.40670897  0.60734154
   0.41603784  0.32727818  0.53907694
   0.27115414  0.56191185  0.57857937
   0.46004848  0.56630024  0.60715584
   0.40397391  0.64615799  0.54656176
   0.44305053  0.41229790  0.41009857
   0.53819208  0.42236701  0.47327450
   0.41408746  0.55713167  0.41435802
   0.60712429  0.61689296  0.43708585
Direct configuration=    30
   0.33479704  0.43970834  0.56462989
   0.33170051  0.52666005  0.56765643
   0.41455379  0.57591385  0.55245502
   0.42144920  0.39772236  0.54887982
   0.46892411  0.43935731  0.47087186
   0.45797844  0.54019470  0.46833600
   0.54054493  0.58324958  0.45077695
   0.27671475  0.39990313  0.57310841
   0.46222156  0.40668698  0.60734377
   0.41602162  0.32727572  0.53906838
   0.27115710  0.56191063  0.57858392
   0.46004961  0.56631341  0.60715207
   0.40396629  0.64615941  0.54655406
   0.44306805  0.41229376  0.41010341
   0.53819909  0.42236577  0.47329211
   0.41410209  0.55712615  0.41435395
   0.60712390  0.61690875  0.43711065
Direct configuration=    31
   0.33480289  0.43971238  0.56464580
   0.33170806  0.52666228  0.56766451
   0.41455081  0.57592172  0.55244609
   0.42144112  0.39770966  0.54888060
   0.46894051  0.43935211  0.47088987
   0.45799278  0.54019014  0.46834141
   0.54055192  0.58325682  0.45080559
   0.27671842  0.39991601  0.57313912
   0.46221651  0.40663324  0.60734765
   0.41598255  0.32726948  0.53904556
   0.27116396  0.56190793  0.57859583
   0.46005139  0.56634562  0.60714209
   0.40394766  0.64616263  0.54653265
   0.44310791  0.41228431  0.41011361
   0.53821441  0.42236283  0.47333238
   0.41413576  0.55711278  0.41434223
   0.60712854  0.61695109  0.43717080
Direct configuration=    32
   0.33482350  0.43972613  0.56470262
   0.33173467  0.52667078  0.56769315
   0.41454082  0.57595024  0.55241411
   0.42141337  0.39766430  0.54888342
   0.46899865  0.43933363  0.47095337
   0.45804197  0.54017317  0.46836061
   0.54059437  0.58329178  0.45090472
   0.27673121  0.39996214  0.57325067
   0.46219916  0.40644024  0.60736168
   0.41584165  0.32724652  0.53896324
   0.27118785  0.56189821  0.57863969
   0.46005837  0.56646170  0.60710639
   0.40387955  0.64617542  0.54645574
   0.44325014  0.41225002  0.41014967
   0.53826929  0.42235137  0.47347537
   0.41425500  0.55706528  0.41429949
   0.60713063  0.61709411  0.43738663
Direct configuration=    33
   0.33482526  0.43972626  0.56470848
   0.33173677  0.52667198  0.56769584
   0.41454057  0.57595352  0.55240911
   0.42141230  0.39765954  0.54888171
   0.46900150  0.43933292  0.47095697
   0.45804557  0.54017117  0.46836085
   0.54059631  0.58329348  0.45091390
   0.27673315  0.39996481  0.57326841
   0.46219772  0.40641804  0.60736141
   0.41582719  0.32724298  0.53894960
   0.27119053  0.56189841  0.57864886
   0.46005800  0.56647647  0.60710235
   0.40387190  0.64617845  0.54644105
   0.44326018  0.41224889  0.41015148
   0.53827308  0.42235030  0.47348622
   0.41426494  0.55706082  0.41429278
   0.60713162  0.61710722  0.43740288
Direct configuration=    34
   0.33482549  0.43972634  0.56470950
   0.33173699  0.52667198  0.56769617
   0.41454043  0.57595423  0.55240747
   0.42141208  0.39765849  0.54888077
   0.46900124  0.43933282  0.47095668
   0.45804565  0.54017063  0.46836010
   0.54059761  0.58329414  0.45091450
   0.27673364  0.39996461  0.57327293
   0.46219768  0.40641391  0.60736087
   0.41582494  0.32724221  0.53894591
   0.27119099  0.56189875  0.57865160
   0.46005768  0.56647956  0.60710153
   0.40387054  0.64617918  0.54643670
   0.44326018  0.41224937  0.41015106
   0.53827285  0.42235015  0.47348652
   0.41426590  0.55706013  0.41429111
   0.60713072  0.61710872  0.43740469
Direct configuration=    35
   0.33482690  0.43972695  0.56471393
   0.33173856  0.52667250  0.56769790
   0.41453960  0.57595708  0.55240234
   0.42141038  0.39765427  0.54887856
   0.46900287  0.43933180  0.47095845
   0.45804804  0.54016896  0.46835910
   0.54059973  0.58329568  0.45091997
   0.27673536  0.39996594  0.57328747
   0.46219696  0.40639725  0.60735997
   0.41581454  0.32723968  0.53893432
   0.27119300  0.56189912  0.57865947
   0.46005716  0.56649101  0.60709813
   0.40386490  0.64618119  0.54642377
   0.44326539  0.41224917  0.41015137
   0.53827433  0.42234933  0.47349233
   0.41427245  0.55705683  0.41428562
   0.60713050  0.61711857  0.43741699
Direct configuration=    36
   0.33483619  0.43973025  0.56474847
   0.33174993  0.52667807  0.56771192
   0.41453281  0.57597866  0.55236651
   0.42139631  0.39762410  0.54886484
   0.46901796  0.43932424  0.47097377
   0.45806593  0.54015789  0.46835307
   0.54062228  0.58330906  0.45096037
   0.27674927  0.39997833  0.57340010
   0.46219087  0.40626684  0.60735523
   0.41573286  0.32722068  0.53884606
   0.27120974  0.56190130  0.57872073
   0.46005303  0.56658099  0.60707239
   0.40382102  0.64619580  0.54632567
   0.44330958  0.41224620  0.41015468
   0.53828780  0.42234317  0.47354152
   0.41432600  0.55703078  0.41424541
   0.60712632  0.61718974  0.43750860
Direct configuration=    37
   0.33484258  0.43973275  0.56477217
   0.33175761  0.52668130  0.56772152
   0.41452762  0.57599394  0.55234181
   0.42138631  0.39760304  0.54885476
   0.46902826  0.43931916  0.47098366
   0.45807867  0.54015130  0.46834896
   0.54063198  0.58331558  0.45098849
   0.27675893  0.39998648  0.57347644
   0.46218694  0.40617899  0.60735155
   0.41567834  0.32720851  0.53878624
   0.27122129  0.56190271  0.57876244
   0.46005016  0.56664197  0.60705472
   0.40379164  0.64620515  0.54625900
   0.44333869  0.41224415  0.41015622
   0.53829667  0.42233895  0.47357355
   0.41436165  0.55701353  0.41421826
   0.60712694  0.61723908  0.43756919
Direct configuration=    38
   0.33483868  0.43973194  0.56475701
   0.33175270  0.52667823  0.56771527
   0.41452958  0.57598479  0.55235734
   0.42139165  0.39761594  0.54886038
   0.46902171  0.43932246  0.47097684
   0.45807069  0.54015656  0.46835177
   0.54062366  0.58331072  0.45096947
   0.27675307  0.39998112  0.57342717
   0.46218953  0.40623643  0.60735300
   0.41571474  0.32721769  0.53882508
   0.27121425  0.56190144  0.57873593
   0.46005166  0.56660279  0.60706548
   0.40381098  0.64619807  0.54630210
   0.44331867  0.41224517  0.41015416
   0.53829065  0.42234142  0.47355086
   0.41433763  0.55702526  0.41423638
   0.60712717  0.61720620  0.43752853
Direct configuration=    39
   0.33484397  0.43973432  0.56477566
   0.33175900  0.52668070  0.56772261
   0.41452468  0.57599688  0.55233715
   0.42138299  0.39759900  0.54885217
   0.46902985  0.43931821  0.47098477
   0.45808084  0.54015104  0.46834818
   0.54063265  0.58331695  0.45099126
   0.27676091  0.39998785  0.57348820
   0.46218608  0.40616621  0.60734921
   0.41567126  0.32720826  0.53877727
   0.27122362  0.56190213  0.57876944
   0.46004888  0.56665181  0.60705054
   0.40378725  0.64620522  0.54624882
   0.44334139  0.41224326  0.41015503
   0.53829759  0.42233767  0.47357553
   0.41436565  0.55701152  0.41421495
   0.60712746  0.61724556  0.43757776
Direct configuration=    40
   0.33484994  0.43973630  0.56480097
   0.33176626  0.52668426  0.56773351
   0.41451840  0.57601181  0.55231345
   0.42137191  0.39757947  0.54884188
   0.46904029  0.43931333  0.47099384
   0.45809318  0.54014660  0.46834559
   0.54064486  0.58332365  0.45101494
   0.27677174  0.39999712  0.57356607
   0.46218194  0.40607774  0.60734550
   0.41561730  0.32719782  0.53871759
   0.27123659  0.56190289  0.57881286
   0.46004554  0.56671470  0.60703233
   0.40375795  0.64621352  0.54618215
   0.44337146  0.41224056  0.41015614
   0.53830760  0.42233325  0.47360707
   0.41440171  0.55699509  0.41418965
   0.60712372  0.61728896  0.43763452
Direct configuration=    41
   0.33484680  0.43973535  0.56478766
   0.33176240  0.52668220  0.56772784
   0.41452125  0.57600383  0.55232603
   0.42137750  0.39759013  0.54884708
   0.46903465  0.43931600  0.47098860
   0.45808656  0.54014938  0.46834702
   0.54063657  0.58331933  0.45100165
   0.27676616  0.39999228  0.57352445
   0.46218403  0.40612545  0.60734690
   0.41564675  0.32720397  0.53874972
   0.27122989  0.56190221  0.57878997
   0.46004705  0.56668132  0.60704164
   0.40377368  0.64620871  0.54621799
   0.44335499  0.41224180  0.41015508
   0.53830224  0.42233543  0.47358916
   0.41438193  0.55700428  0.41420376
   0.60712670  0.61726513  0.43760288
Direct configuration=    42
   0.33485031  0.43973712  0.56480024
   0.33176651  0.52668342  0.56773301
   0.41451751  0.57601170  0.55231303
   0.42137161  0.39757957  0.54884139
   0.46903995  0.43931345  0.47099319
   0.45809278  0.54014629  0.46834500
   0.54064190  0.58332322  0.45101438
   0.27677148  0.39999677  0.57356419
   0.46218170  0.40608041  0.60734384
   0.41561936  0.32719865  0.53871904
   0.27123626  0.56190238  0.57881229
   0.46004502  0.56671354  0.60703160
   0.40375840  0.64621290  0.54618375
   0.44336948  0.41224027  0.41015507
   0.53830684  0.42233283  0.47360398
   0.41439954  0.55699599  0.41419074
   0.60712620  0.61728850  0.43763273
Direct configuration=    43
   0.33485723  0.43973951  0.56482820
   0.33177462  0.52668716  0.56774527
   0.41451020  0.57602815  0.55228696
   0.42135960  0.39755860  0.54882962
   0.46905117  0.43930837  0.47100252
   0.45810550  0.54014134  0.46834210
   0.54065378  0.58333025  0.45103933
   0.27678347  0.40000704  0.57365047
   0.46217697  0.40598357  0.60733867
   0.41556081  0.32718805  0.53865352
   0.27125065  0.56190295  0.57886127
   0.46004102  0.56678362  0.60701106
   0.40372588  0.64622177  0.54611057
   0.44340222  0.41223705  0.41015548
   0.53831771  0.42232780  0.47363692
   0.41443816  0.55697884  0.41416387
   0.60712268  0.61733344  0.43769215
Direct configuration=    44
   0.33485592  0.43973949  0.56482147
   0.33177300  0.52668587  0.56774229
   0.41451135  0.57602431  0.55229246
   0.42136223  0.39756344  0.54883189
   0.46904840  0.43930955  0.47099998
   0.45810211  0.54014189  0.46834231
   0.54065111  0.58332933  0.45103296
   0.27678060  0.40000452  0.57363020
   0.46217790  0.40600683  0.60733874
   0.41557508  0.32719080  0.53866896
   0.27124714  0.56190251  0.57885018
   0.46004161  0.56676737  0.60701523
   0.40373324  0.64621958  0.54612782
   0.44339371  0.41223764  0.41015473
   0.53831471  0.42232869  0.47362756
   0.41442798  0.55698327  0.41417050
   0.60712366  0.61732225  0.43767787
Direct configuration=    45
   0.33485822  0.43974059  0.56482955
   0.33177564  0.52668674  0.56774576